
                                 *****************
                                 * O   R   C   A *
                                 *****************

                                            #,                                       
                                            ###                                      
                                            ####                                     
                                            #####                                    
                                            ######                                   
                                           ########,                                 
                                     ,,################,,,,,                         
                               ,,#################################,,                 
                          ,,##########################################,,             
                       ,#########################################, ''#####,          
                    ,#############################################,,   '####,        
                  ,##################################################,,,,####,       
                ,###########''''           ''''###############################       
              ,#####''   ,,,,##########,,,,          '''####'''          '####       
            ,##' ,,,,###########################,,,                        '##       
           ' ,,###''''                  '''############,,,                           
         ,,##''                                '''############,,,,        ,,,,,,###''
      ,#''                                            '''#######################'''  
     '                                                          ''''####''''         
             ,#######,   #######,   ,#######,      ##                                
            ,#'     '#,  ##    ##  ,#'     '#,    #''#        ,####,   ,####,        
            ##       ##  ##   ,#'  ##            #'  '#       #'       #'  '#        
            ##       ##  #######   ##           ,######,      #####,   #    #        
            '#,     ,#'  ##    ##  '#,     ,#' ,#      #,     #,   #   #,  ,#        
             '#######'   ##     ##  '#######'  #'      '#     '####' # '####'        



                #########################################################
                #                        -***-                          #
                #          Department of theory and spectroscopy        #
                #                                                       #
                #                      Frank Neese                      #
                #                                                       #
                #     Directorship, Architecture, Infrastructure        #
                #                    SHARK, DRIVERS                     #
                #        Core code/Algorithms in most modules           #
                #                                                       #
                #        Max Planck Institute fuer Kohlenforschung      #
                #                Kaiser Wilhelm Platz 1                 #
                #                 D-45470 Muelheim/Ruhr                 #
                #                      Germany                          #
                #                                                       #
                #                  All rights reserved                  #
                #                        -***-                          #
                #########################################################


                         Program Version 6.0.0  -   RELEASE  -


 With contributions from (in alphabetic order):
   Daniel Aravena         : Magnetic Suceptibility
   Michael Atanasov       : Ab Initio Ligand Field Theory (pilot matlab implementation)
   Alexander A. Auer      : GIAO ZORA, VPT2 properties, NMR spectrum
   Ute Becker             : All parallelization in ORCA, NUMFREQ, NUMCALC
   Giovanni Bistoni       : ED, misc. LED, open-shell LED, HFLD
   Martin Brehm           : Molecular dynamics
   Dmytro Bykov           : pre 5.0 version of the SCF Hessian
   Marcos Casanova-Páez   : Triplet and SCS-CIS(D). UHF-(DLPNO)-IP/EA/STEOM-CCSD. UHF-CVS-IP/STEOM-CCSD
   Vijay G. Chilkuri      : MRCI spin determinant printing, contributions to CSF-ICE
   Pauline Colinet        : FMM embedding
   Dipayan Datta          : RHF DLPNO-CCSD density
   Achintya Kumar Dutta   : EOM-CC, STEOM-CC
   Nicolas Foglia         : Exact transition moments, OPA infrastructure, MCD improvements
   Dmitry Ganyushin       : Spin-Orbit,Spin-Spin,Magnetic field MRCI
   Miquel Garcia          : C-PCM and meta-GGA Hessian, CCSD/C-PCM, Gaussian charge scheme
   Tiago L. C. Gouveia    : GS-ROHF, GS-ROCIS
   Yang Guo               : DLPNO-NEVPT2, F12-NEVPT2, CIM, IAO-localization
   Andreas Hansen         : Spin unrestricted coupled pair/coupled cluster methods
   Ingolf Harden          : AUTO-CI MPn and infrastructure 
   Benjamin Helmich-Paris : MC-RPA, TRAH-(SCF,CASSCF), AVAS, COSX integrals, SCF dyn. polar.
   Lee Huntington         : MR-EOM, pCC
   Robert Izsak           : Overlap fitted RIJCOSX, COSX-SCS-MP3, EOM
   Riya Kayal             : Wick's Theorem for AUTO-CI, AUTO-CI UHF-CCSDT
   Emily Kempfer          : AUTO-CI, RHF CISDT and CCSDT
   Christian Kollmar      : KDIIS, OOCD, Brueckner-CCSD(T), CCSD density, CASPT2, CASPT2-K, improved NEVPT2
   Axel Koslowski         : Symmetry handling
   Simone Kossmann        : Meta GGA functionals, TD-DFT gradient, OOMP2, (MP2 Hessian; deprecated post 5.0)
   Lucas Lang             : DCDCAS
   Marvin Lechner         : AUTO-CI (C++ implementation), FIC-MRCC
   Spencer Leger          : CASSCF response
   Dagmar Lenk            : GEPOL surface, SMD, ORCA-2-JSON
   Dimitrios Liakos       : Extrapolation schemes; Compound Job, initial MDCI parallelization
   Dimitrios Manganas     : Further ROCIS development; embedding schemes. LFT, Crystal Embedding
   Dimitrios Pantazis     : SARC Basis sets
   Anastasios Papadopoulos: AUTO-CI, single reference methods and gradients
   Taras Petrenko         : pre 6.0 DFT Hessian and TD-DFT gradient, (ASA, deprecated), ECA, 1-Electron XAS/XES, NRVS
   Peter Pinski           : DLPNO-MP2, DLPNO-MP2 Gradient
   Christoph Reimann      : Effective Core Potentials
   Marius Retegan         : Local ZFS, SOC
   Christoph Riplinger    : Optimizer, TS searches, QM/MM, DLPNO-CCSD(T), (RO)-DLPNO pert. Triples
   Michael Roemelt        : Original ROCIS implementation
   Masaaki Saitow         : Open-shell DLPNO-CCSD energy and density
   Barbara Sandhoefer     : DKH picture change effects
   Kantharuban Sivalingam : CASSCF convergence/infrastructure, NEVPT2 and variants, FIC-MRCI
   Bernardo de Souza      : ESD, SOC TD-DFT
   Georgi Stoychev        : AutoAux, RI-MP2 NMR, DLPNO-MP2 response, X2C
   Van Anh Tran           : RI-MP2 g-tensors
   Willem Van den Heuvel  : Paramagnetic NMR
   Zikuan Wang            : NOTCH, Electric field optimization 
   Frank Wennmohs         : Technical directorship and infrastructure
   Hang Xu                : AUTO-CI-Response properties 


 We gratefully acknowledge several colleagues who have allowed us to
 interface, adapt or use parts of their codes:
   Stefan Grimme, W. Hujo, H. Kruse, P. Pracht,  : VdW corrections, initial TS optimization,
                  C. Bannwarth, S. Ehlert,         DFT functionals, gCP, sTDA/sTD-DF
                  L. Wittmann, M. Mueller
   Ed Valeev, F. Pavosevic, A. Kumar             : LibInt (2-el integral package), F12 methods
   Garnet Chan, S. Sharma, J. Yang, R. Olivares  : DMRG
   Ulf Ekstrom                                   : XCFun DFT Library
   Mihaly Kallay                                 : mrcc  (arbitrary order and MRCC methods)
   Frank Weinhold                                : gennbo (NPA and NBO analysis)
   Simon Mueller                                 : openCOSMO-RS
   Christopher J. Cramer and Donald G. Truhlar   : smd solvation model
   Lars Goerigk                                  : TD-DFT with DH, B97 family of functionals
   V. Asgeirsson, H. Jonsson                     : NEB implementation
   FAccTs GmbH                                   : IRC, NEB, NEB-TS, DLPNO-Multilevel, CI-OPT
                                                   MM, QMMM, 2- and 3-layer-ONIOM, Crystal-QMMM,
                                                   LR-CPCM, SF, NACMEs, symmetry and pop. for TD-DFT,
                                                   nearIR, NL-DFT gradient (VV10), updates on ESD,
                                                   ML-optimized integration grids, MBIS, APM,
                                                   GOAT, DOCKER, SOLVATOR, interface openCOSMO-RS
   S Lehtola, MJT Oliveira, MAL Marques          : LibXC Library
   Liviu Ungur et al                             : ANISO software


 Your calculation uses the libint2 library for the computation of 2-el integrals
 For citations please refer to: http://libint.valeyev.net

 Your ORCA version has been built with support for libXC version: 6.2.2
 For citations please refer to: https://libxc.gitlab.io

 This ORCA versions uses:
   CBLAS   interface :  Fast vector & matrix operations
   LAPACKE interface :  Fast linear algebra routines
   SCALAPACK package :  Parallel linear algebra routines
   Shared memory     :  Shared parallel matrices
   BLAS/LAPACK       :  OpenBLAS 0.3.27  USE64BITINT DYNAMIC_ARCH NO_AFFINITY Haswell SINGLE_THREADED
        Core in use  :  Haswell
   Copyright (c) 2011-2014, The OpenBLAS Project


Warning: RI is on but no J-basis has been assigned. Assigning Def2/J (nothing to worry about!)
================================================================================

----- Orbital basis set information -----
Your calculation utilizes the basis: def2-SVP
   F. Weigend and R. Ahlrichs, Phys. Chem. Chem. Phys. 7, 3297 (2005).

----- AuxJ basis set information -----
Your calculation utilizes the auxiliary basis: def2/J
   F. Weigend, Phys. Chem. Chem. Phys. 8, 1057 (2006).

================================================================================
                                        WARNINGS
                       Please study these warnings very carefully!
================================================================================


WARNING: Geometry Optimization
  ===> : Switching off AutoStart
         For restart on a previous wavefunction, please use MOREAD

================================================================================
                                       INPUT FILE
================================================================================
NAME = Acetaminophen-PBE-GeoOpt-1.inp
|  1> ! PBE DEF2-SVP OPT PAL8 FREQ
|  2> * xyz 0 1
|  3> O  3.8509  0.4516  0.0012
|  4> O -2.5999  1.4041 -0.0018
|  5> N -1.5705 -0.7171  0.0001
|  6> C -0.2066 -0.4231 -0.0002
|  7> C  0.2205  0.9047  0.0004
|  8> C  0.7298 -1.4570 -0.0007
|  9> C  1.5841  1.1986  0.0002
| 10> C  2.0933 -1.1629 -0.0007
| 11> C  2.5204  0.1648 -0.0003
| 12> C -2.6485  0.1782  0.0009
| 13> C -3.9735 -0.5420  0.0010
| 14> H -0.4436  1.7577  0.0012
| 15> H  0.4113 -2.4963 -0.0010
| 16> H -1.8010 -1.7086  0.0001
| 17> H  1.9053  2.2370  0.0009
| 18> H  2.8180 -1.9726 -0.0008
| 19> H -4.0655 -1.1463 -0.9058
| 20> H -4.7904  0.1844  0.0288
| 21> H -4.0445 -1.1886  0.8802
| 22> H  3.9650  1.4176  0.0017
| 23> **                         ****END OF INPUT****
================================================================================

                       *****************************
                       * Geometry Optimization Run *
                       *****************************

Geometry optimization settings:
Update method            Update   .... BFGS
Choice of coordinates    CoordSys .... (2022) Redundant Internals
Initial Hessian          InHess   .... Almloef's Model
Max. no of cycles        MaxIter  .... 60

Convergence Tolerances:
Energy Change            TolE     ....  5.0000e-06 Eh
Max. Gradient            TolMAXG  ....  3.0000e-04 Eh/bohr
RMS Gradient             TolRMSG  ....  1.0000e-04 Eh/bohr
Max. Displacement        TolMAXD  ....  4.0000e-03 bohr
RMS Displacement         TolRMSD  ....  2.0000e-03 bohr
Strict Convergence                .... False

------------------------------------------------------------------------------
                        ORCA OPTIMIZATION COORDINATE SETUP
------------------------------------------------------------------------------

The optimization will be done in redundant internal coordinates (2022)
Making redundant internal coordinates   ...  (2022 redundants) done
Evaluating the initial hessian          ...  (Almloef) done
Evaluating the coordinates              ...  done
Calculating the B-matrix                .... done
Calculating the G-matrix                .... done
Diagonalizing the G-matrix              .... done
Small eigenvalue found = 1.245e-02
The first mode is                       ....   36
The number of degrees of freedom        ....   54

    -----------------------------------------------------------------
                    Redundant Internal Coordinates


    -----------------------------------------------------------------
         Definition                    Initial Value    Approx d2E/dq
    -----------------------------------------------------------------
      1. B(C   3,N   2)                  1.3952         0.548954   
      2. B(C   4,C   3)                  1.3948         0.613875   
      3. B(C   5,C   3)                  1.3949         0.613611   
      4. B(C   6,C   4)                  1.3949         0.613621   
      5. B(C   7,C   5)                  1.3949         0.613746   
      6. B(C   8,C   6)                  1.3948         0.613930   
      7. B(C   8,O   0)                  1.3611         0.622366   
      8. B(C   8,C   7)                  1.3947         0.614090   
      9. B(C   9,N   2)                  1.4013         0.536839   
     10. B(C   9,O   1)                  1.2269         1.018933   
     11. B(C  10,C   9)                  1.5081         0.404898   
     12. B(H  11,C   4)                  1.0810         0.372156   
     13. B(H  12,C   5)                  1.0870         0.364080   
     14. B(H  13,N   2)                  1.0179         0.420268   
     15. B(H  14,C   6)                  1.0869         0.364167   
     16. B(H  15,C   7)                  1.0866         0.364561   
     17. B(H  16,C  10)                  1.0936         0.355388   
     18. B(H  17,C  10)                  1.0935         0.355492   
     19. B(H  18,C  10)                  1.0937         0.355271   
     20. B(H  19,O   0)                  0.9727         0.496227   
     21. A(C   8,O   0,H  19)          108.9008         0.367400   
     22. A(C   3,N   2,C   9)          128.1253         0.408599   
     23. A(C   3,N   2,H  13)          115.2519         0.349615   
     24. A(C   9,N   2,H  13)          116.6229         0.348302   
     25. A(N   2,C   3,C   4)          119.9953         0.421181   
     26. A(N   2,C   3,C   5)          120.0026         0.421149   
     27. A(C   4,C   3,C   5)          120.0021         0.432485   
     28. A(C   3,C   4,H  11)          124.2667         0.354287   
     29. A(C   3,C   4,C   6)          119.9939         0.432487   
     30. A(C   6,C   4,H  11)          115.7394         0.354262   
     31. A(C   3,C   5,C   7)          119.9951         0.432469   
     32. A(C   7,C   5,H  12)          119.2099         0.352960   
     33. A(C   3,C   5,H  12)          120.7950         0.352947   
     34. A(C   4,C   6,C   8)          120.0037         0.432493   
     35. A(C   8,C   6,H  14)          120.6453         0.352992   
     36. A(C   4,C   6,H  14)          119.3510         0.352962   
     37. A(C   8,C   7,H  15)          120.3386         0.353072   
     38. A(C   5,C   7,H  15)          119.6573         0.353039   
     39. A(C   5,C   7,C   8)          120.0041         0.432530   
     40. A(O   0,C   8,C   6)          120.0023         0.430760   
     41. A(C   6,C   8,C   7)          120.0011         0.432553   
     42. A(O   0,C   8,C   7)          119.9966         0.430780   
     43. A(N   2,C   9,C  10)          111.7635         0.389797   
     44. A(O   1,C   9,C  10)          120.7964         0.436748   
     45. A(O   1,C   9,N   2)          127.4398         0.456622   
     46. A(H  17,C  10,H  18)          108.8930         0.289638   
     47. A(H  16,C  10,H  18)          109.5378         0.289625   
     48. A(C   9,C  10,H  18)          109.8423         0.327915   
     49. A(H  16,C  10,H  17)          108.9843         0.289653   
     50. A(C   9,C  10,H  17)          109.8233         0.327949   
     51. A(C   9,C  10,H  16)          109.7400         0.327933   
     52. D(C   5,C   3,N   2,H  13)      0.0108         0.024014   
     53. D(C   5,C   3,N   2,C   9)    179.9847         0.024014   
     54. D(C   4,C   3,N   2,C   9)      0.0037         0.024014   
     55. D(C   4,C   3,N   2,H  13)   -179.9702         0.024014   
     56. D(C   6,C   4,C   3,C   5)      0.0142         0.026046   
     57. D(H  11,C   4,C   3,C   5)   -179.9750         0.026046   
     58. D(H  11,C   4,C   3,N   2)      0.0061         0.026046   
     59. D(C   6,C   4,C   3,N   2)    179.9953         0.026046   
     60. D(H  12,C   5,C   3,N   2)      0.0085         0.026022   
     61. D(H  12,C   5,C   3,C   4)    179.9896         0.026022   
     62. D(C   7,C   5,C   3,C   4)     -0.0047         0.026022   
     63. D(C   7,C   5,C   3,N   2)   -179.9858         0.026022   
     64. D(C   8,C   6,C   4,H  11)    179.9759         0.026023   
     65. D(C   8,C   6,C   4,C   3)     -0.0142         0.026023   
     66. D(H  14,C   6,C   4,C   3)   -179.9862         0.026023   
     67. D(H  14,C   6,C   4,H  11)      0.0038         0.026023   
     68. D(H  15,C   7,C   5,H  12)     -0.0120         0.026034   
     69. D(H  15,C   7,C   5,C   3)    179.9824         0.026034   
     70. D(C   8,C   7,C   5,H  12)   -179.9991         0.026034   
     71. D(C   8,C   7,C   5,C   3)     -0.0047         0.026034   
     72. D(C   6,C   8,C   7,H  15)   -179.9823         0.026065   
     73. D(C   6,C   8,C   7,C   5)      0.0047         0.026065   
     74. D(O   0,C   8,C   7,H  15)     -0.0599         0.026065   
     75. D(O   0,C   8,C   7,C   5)    179.9271         0.026065   
     76. D(C   7,C   8,C   6,H  14)    179.9764         0.026050   
     77. D(C   7,C   8,C   6,C   4)      0.0047         0.026050   
     78. D(O   0,C   8,C   6,H  14)      0.0541         0.026050   
     79. D(O   0,C   8,C   6,C   4)   -179.9176         0.026050   
     80. D(C   7,C   8,O   0,H  19)   -179.9730         0.028434   
     81. D(C   6,C   8,O   0,H  19)     -0.0507         0.028434   
     82. D(O   1,C   9,N   2,C   3)      0.1939         0.022914   
     83. D(C  10,C   9,N   2,H  13)     -0.0254         0.022914   
     84. D(C  10,C   9,N   2,C   3)   -179.9990         0.022914   
     85. D(O   1,C   9,N   2,H  13)   -179.8325         0.022914   
     86. D(H  18,C  10,C   9,O   1)   -121.4278         0.012154   
     87. D(H  17,C  10,C   9,N   2)    178.4865         0.012154   
     88. D(H  17,C  10,C   9,O   1)     -1.6917         0.012154   
     89. D(H  16,C  10,C   9,N   2)    -61.7287         0.012154   
     90. D(H  16,C  10,C   9,O   1)    118.0931         0.012154   
    -----------------------------------------------------------------

Number of atoms                         .... 20
Number of degrees of freedom            .... 90


         *************************************************************
         *                GEOMETRY OPTIMIZATION CYCLE   1            *
         *************************************************************
---------------------------------
CARTESIAN COORDINATES (ANGSTROEM)
---------------------------------
  O      3.850900    0.451600    0.001200
  O     -2.599900    1.404100   -0.001800
  N     -1.570500   -0.717100    0.000100
  C     -0.206600   -0.423100   -0.000200
  C      0.220500    0.904700    0.000400
  C      0.729800   -1.457000   -0.000700
  C      1.584100    1.198600    0.000200
  C      2.093300   -1.162900   -0.000700
  C      2.520400    0.164800   -0.000300
  C     -2.648500    0.178200    0.000900
  C     -3.973500   -0.542000    0.001000
  H     -0.443600    1.757700    0.001200
  H      0.411300   -2.496300   -0.001000
  H     -1.801000   -1.708600    0.000100
  H      1.905300    2.237000    0.000900
  H      2.818000   -1.972600   -0.000800
  H     -4.065500   -1.146300   -0.905800
  H     -4.790400    0.184400    0.028800
  H     -4.044500   -1.188600    0.880200
  H      3.965000    1.417600    0.001700

----------------------------
CARTESIAN COORDINATES (A.U.)
----------------------------
  NO LB      ZA    FRAG     MASS         X           Y           Z
   0 O     8.0000    0    15.999    7.277146    0.853400    0.002268
   1 O     8.0000    0    15.999   -4.913099    2.653364   -0.003402
   2 N     7.0000    0    14.007   -2.967815   -1.355123    0.000189
   3 C     6.0000    0    12.011   -0.390417   -0.799543   -0.000378
   4 C     6.0000    0    12.011    0.416685    1.709635    0.000756
   5 C     6.0000    0    12.011    1.379122   -2.753331   -0.001323
   6 C     6.0000    0    12.011    2.993515    2.265026    0.000378
   7 C     6.0000    0    12.011    3.955764   -2.197563   -0.001323
   8 C     6.0000    0    12.011    4.762866    0.311427   -0.000567
   9 C     6.0000    0    12.011   -5.004940    0.336749    0.001701
  10 C     6.0000    0    12.011   -7.508827   -1.024232    0.001890
  11 H     1.0000    0     1.008   -0.838283    3.321572    0.002268
  12 H     1.0000    0     1.008    0.777244   -4.717323   -0.001890
  13 H     1.0000    0     1.008   -3.403397   -3.228786    0.000189
  14 H     1.0000    0     1.008    3.600495    4.227317    0.001701
  15 H     1.0000    0     1.008    5.325248   -3.727674   -0.001512
  16 H     1.0000    0     1.008   -7.682682   -2.166193   -1.711714
  17 H     1.0000    0     1.008   -9.052544    0.348465    0.054424
  18 H     1.0000    0     1.008   -7.642997   -2.246128    1.663337
  19 H     1.0000    0     1.008    7.492764    2.678876    0.003213

--------------------------------
INTERNAL COORDINATES (ANGSTROEM)
--------------------------------
 O      0   0   0     0.000000000000     0.00000000     0.00000000
 O      1   0   0     6.520742740670     0.00000000     0.00000000
 N      2   1   0     2.357786548863    55.71371294     0.00000000
 C      3   2   1     1.395227329147   103.72242962   359.97561963
 C      4   3   2     1.394800204330   119.99534354     0.08610607
 C      4   3   2     1.394917352390   120.00258709   180.06713780
 C      5   4   3     1.394912975780   119.99392731   179.99525957
 C      6   4   3     1.394857361883   119.99510512   180.01422232
 C      1   2   3     1.361060887690    20.56384519     0.14741556
 C      2   1   3     1.226865950298    83.87084136     0.08607763
 C     10   2   1     1.508082573999   120.79635806   180.05776128
 H      5   4   3     1.081035822718   124.26669756     0.00000000
 H      6   4   3     1.087008201441   120.79495361     0.00000000
 H      3   2   1     1.017940322416   141.02564861   180.05664478
 H      7   5   4     1.086942726182   119.35101167   180.01375299
 H      8   6   4     1.086648144525   119.65733890   179.98235425
 H     11  10   2     1.093585264166   109.73996839   118.09309404
 H     11  10   2     1.093506017359   109.82327249   358.30828304
 H     11  10   2     1.093675088863   109.84231933   238.57220520
 H      1   2   3     0.972715302645    88.33696708   180.06813846

---------------------------
INTERNAL COORDINATES (A.U.)
---------------------------
 O      0   0   0     0.000000000000     0.00000000     0.00000000
 O      1   0   0    12.322417969621     0.00000000     0.00000000
 N      2   1   0     4.455570859595    55.71371294     0.00000000
 C      3   2   1     2.636597546651   103.72242962   359.97561963
 C      4   3   2     2.635790397722   119.99534354     0.08610607
 C      4   3   2     2.636011775472   120.00258709   180.06713780
 C      5   4   3     2.636003504878   119.99392731   179.99525957
 C      6   4   3     2.635898409843   119.99510512   180.01422232
 C      1   2   3     2.572032329326    20.56384519     0.14741556
 C      2   1   3     2.318440649096    83.87084136     0.08607763
 C     10   2   1     2.849863052197   120.79635806   180.05776128
 H      5   4   3     2.042861645896   124.26669756     0.00000000
 H      6   4   3     2.054147806050   120.79495361     0.00000000
 H      3   2   1     1.923628430041   141.02564861   180.05664478
 H      7   5   4     2.054024075742   119.35101167   180.01375299
 H      8   6   4     2.053467397086   119.65733890   179.98235425
 H     11  10   2     2.066576653365   109.73996839   118.09309404
 H     11  10   2     2.066426898603   109.82327249   358.30828304
 H     11  10   2     2.066746397443   109.84231933   238.57220520
 H      1   2   3     1.838165528274    88.33696708   180.06813846

---------------------
BASIS SET INFORMATION
---------------------
There are 4 groups of distinct atoms

 Group   1 Type O   : 7s4p1d contracted to 3s2p1d pattern {511/31/1}
 Group   2 Type N   : 7s4p1d contracted to 3s2p1d pattern {511/31/1}
 Group   3 Type C   : 7s4p1d contracted to 3s2p1d pattern {511/31/1}
 Group   4 Type H   : 4s1p contracted to 2s1p pattern {31/1}

Atom   0O    basis set group =>   1
Atom   1O    basis set group =>   1
Atom   2N    basis set group =>   2
Atom   3C    basis set group =>   3
Atom   4C    basis set group =>   3
Atom   5C    basis set group =>   3
Atom   6C    basis set group =>   3
Atom   7C    basis set group =>   3
Atom   8C    basis set group =>   3
Atom   9C    basis set group =>   3
Atom  10C    basis set group =>   3
Atom  11H    basis set group =>   4
Atom  12H    basis set group =>   4
Atom  13H    basis set group =>   4
Atom  14H    basis set group =>   4
Atom  15H    basis set group =>   4
Atom  16H    basis set group =>   4
Atom  17H    basis set group =>   4
Atom  18H    basis set group =>   4
Atom  19H    basis set group =>   4
---------------------------------
AUXILIARY/J BASIS SET INFORMATION
---------------------------------
There are 4 groups of distinct atoms

 Group   1 Type O   : 12s5p4d2f1g contracted to 6s4p3d1f1g pattern {711111/2111/211/2/1}
 Group   2 Type N   : 12s5p4d2f1g contracted to 6s4p3d1f1g pattern {711111/2111/211/2/1}
 Group   3 Type C   : 12s5p4d2f1g contracted to 6s4p3d1f1g pattern {711111/2111/211/2/1}
 Group   4 Type H   : 5s2p1d contracted to 3s1p1d pattern {311/2/1}

Atom   0O    basis set group =>   1
Atom   1O    basis set group =>   1
Atom   2N    basis set group =>   2
Atom   3C    basis set group =>   3
Atom   4C    basis set group =>   3
Atom   5C    basis set group =>   3
Atom   6C    basis set group =>   3
Atom   7C    basis set group =>   3
Atom   8C    basis set group =>   3
Atom   9C    basis set group =>   3
Atom  10C    basis set group =>   3
Atom  11H    basis set group =>   4
Atom  12H    basis set group =>   4
Atom  13H    basis set group =>   4
Atom  14H    basis set group =>   4
Atom  15H    basis set group =>   4
Atom  16H    basis set group =>   4
Atom  17H    basis set group =>   4
Atom  18H    basis set group =>   4
Atom  19H    basis set group =>   4


           ************************************************************
           *        Program running with 8 parallel MPI-processes     *
           *              working on a common directory               *
           ************************************************************
------------------------------------------------------------------------------
                             ORCA STARTUP CALCULATIONS
                           -- RI-GTO INTEGRALS CHOSEN --
------------------------------------------------------------------------------
------------------------------------------------------------------------------
                   ___                                                        
                  /   \      - P O W E R E D   B Y -                         
                 /     \                                                     
                 |  |  |   _    _      __       _____    __    __             
                 |  |  |  | |  | |    /  \     |  _  \  |  |  /  |          
                  \  \/   | |  | |   /    \    | | | |  |  | /  /          
                 / \  \   | |__| |  /  /\  \   | |_| |  |  |/  /          
                |  |  |   |  __  | /  /__\  \  |    /   |      \           
                |  |  |   | |  | | |   __   |  |    \   |  |\   \          
                \     /   | |  | | |  |  |  |  | |\  \  |  | \   \       
                 \___/    |_|  |_| |__|  |__|  |_| \__\ |__|  \__/        
                                                                              
                      - O R C A' S   B I G   F R I E N D -                    
                                      &                                       
                       - I N T E G R A L  F E E D E R -                       
                                                                              
 v1 FN, 2020, v2 2021, v3 2022-2024                                           
------------------------------------------------------------------------------


----------------------
SHARK INTEGRAL PACKAGE
----------------------

Number of atoms                             ...     20
Number of basis functions                   ...    199
Number of shells                            ...     93
Maximum angular momentum                    ...      2
Integral batch strategy                     ... SHARK/LIBINT Hybrid
RI-J (if used) integral strategy            ... SPLIT-RIJ (Revised 2003 algorithm where possible)
Printlevel                                  ...      1
Contraction scheme used                     ... SEGMENTED contraction
Prescreening option                         ... SCHWARTZ
   Thresh                                   ... 2.500e-11
   Tcut                                     ... 2.500e-12
   Tpresel                                  ... 2.500e-12 
Coulomb Range Separation                    ... NOT USED
Exchange Range Separation                   ... NOT USED
Multipole approximations                    ... NOT USED
Finite Nucleus Model                        ... NOT USED
CABS basis                                  ... NOT available
Auxiliary Coulomb fitting basis             ... AVAILABLE
   # of basis functions in Aux-J            ...    638
   # of shells in Aux-J                     ...    210
   Maximum angular momentum in Aux-J        ...      4
Auxiliary J/K fitting basis                 ... NOT available
Auxiliary Correlation fitting basis         ... NOT available
Auxiliary 'external' fitting basis          ... NOT available

Checking pre-screening integrals            ... done (  0.0 sec) Dimension = 93
Check shell pair data                       ... done (  0.0 sec)
Shell pair information
Shell pair cut-off parameter TPreSel        ...   2.5e-12
Total number of shell pairs                 ...      4371
Shell pairs after pre-screening             ...      3771
Total number of primitive shell pairs       ...     15923
Primitive shell pairs kept                  ...      9667
          la=0 lb=0:   1153 shell pairs
          la=1 lb=0:   1377 shell pairs
          la=1 lb=1:    433 shell pairs
          la=2 lb=0:    468 shell pairs
          la=2 lb=1:    285 shell pairs
          la=2 lb=2:     55 shell pairs

Calculating one electron integrals          ... done (  0.0 sec)
Calculating RI/J V-Matrix + Cholesky decomp.... done (  0.1 sec)
Calculating Nuclear repulsion               ... done (  0.0 sec) ENN=    572.155282724982 Eh

Diagonalization of the overlap matrix:
Smallest eigenvalue                        ... 2.442e-04
Time for diagonalization                   ...    0.003 sec
Threshold for overlap eigenvalues          ... 1.000e-07
Number of eigenvalues below threshold      ... 0
Time for construction of square roots      ...    0.009 sec
Total time needed                          ...    0.036 sec

-------------------
DFT GRID GENERATION
-------------------

General Integration Accuracy     IntAcc      ... 4.388
Radial Grid Type                 RadialGrid  ... OptM3 with GC (2021)
Angular Grid (max. ang.)         AngularGrid ... 4 (Lebedev-302)
Angular grid pruning method      GridPruning ... 4 (adaptive)
Weight generation scheme         WeightScheme... mBecke (2022)
Basis function cutoff            BFCut       ... 1.0000e-11
Integration weight cutoff        WCut        ... 1.0000e-14
Partially contracted basis set               ... off
Rotationally invariant grid construction     ... off
Angular grids for H and He will be reduced by one unit

Total number of grid points                  ...    95131
Total number of batches                      ...     1496
Average number of points per batch           ...       63
Average number of grid points per atom       ...     4757
Initializing property integral containers    ... done (  0.0 sec)

SHARK setup successfully completed in   2.4 seconds

Maximum memory used throughout the entire STARTUP-calculation: 25.2 MB


           ************************************************************
           *        Program running with 8 parallel MPI-processes     *
           *              working on a common directory               *
           ************************************************************
-------------------------------------------------------------------------------
                                 ORCA GUESS
                   Start orbitals & Density for SCF / CASSCF
-------------------------------------------------------------------------------

------------
SCF SETTINGS
------------
Hamiltonian:
 Density Functional     Method          .... DFT(GTOs)
 Exchange Functional    Exchange        .... PBE
   PBE kappa parameter   XKappa         ....  0.804000
   PBE mue parameter    XMuePBE         ....  0.219520
 Correlation Functional Correlation     .... PBE
   PBE beta parameter  CBetaPBE         ....  0.066725
 LDA part of GGA corr.  LDAOpt          .... PW91-LDA
 Gradients option       PostSCFGGA      .... off
   NL short-range parameter             ....  6.400000
 RI-approximation to the Coulomb term is turned on
   Number of AuxJ basis functions       .... 638


General Settings:
 Integral files         IntName         .... Acetaminophen-PBE-GeoOpt-1
 Hartree-Fock type      HFTyp           .... RHF
 Total Charge           Charge          ....    0
 Multiplicity           Mult            ....    1
 Number of Electrons    NEL             ....   80
 Basis Dimension        Dim             ....  199
 Nuclear Repulsion      ENuc            ....    572.1552827250 Eh

Convergence Acceleration:
 AO-DIIS                CNVDIIS         .... on
   Start iteration      DIISMaxIt       ....    12
   Startup error        DIISStart       ....  0.200000
   # of expansion vecs  DIISMaxEq       ....     5
   Bias factor          DIISBfac        ....   1.050
   Max. coefficient     DIISMaxC        ....  10.000
 MO-DIIS                CNVKDIIS        .... off
 Trust-Rad. Augm. Hess. CNVTRAH         .... auto
   Auto Start mean grad. ratio tolernc. ....  1.125000
   Auto Start start iteration           ....    50
   Auto Start num. interpolation iter.  ....    10
   Max. Number of Micro iterations      ....    24
   Max. Number of Macro iterations      .... Maxiter - #DIIS iter
   Number of Davidson start vectors     ....     2
   Converg. threshold    (grad. norm)   ....   1.000e-05
   Grad. Scal. Fac. for Micro threshold ....   0.100
   Minimum threshold for Micro iter.    ....   1.000e-02
   NR start threshold (gradient norm)   ....   1.000e-04
   Initial trust radius                 ....   0.400
   Minimum AH scaling param. (alpha)    ....   1.000
   Maximum AH scaling param. (alpha)    .... 1000.000
   Quad. conv. algorithm                .... NR
   White noise on init. David. guess    .... on
   Maximum white noise                  ....   0.010
   Pseudo random numbers                .... off
   Inactive MOs                         .... canonical
   Orbital update algorithm             .... Taylor
   Preconditioner                       .... Diag
   Full preconditioner red. dimension   ....   250
 SOSCF                  CNVSOSCF        .... on
   Start iteration      SOSCFMaxIt      ....   150
   Startup grad/error   SOSCFStart      ....  0.003300
   Hessian update       SOSCFHessUp     .... L-BFGS
 Level Shifting         CNVShift        .... on
   Level shift para.    LevelShift      ....    0.2500
   Turn off err/grad.   ShiftErr        ....    0.0010
 Zerner damping         CNVZerner       .... off
 Static damping         CNVDamp         .... on
   Fraction old density DampFac         ....    0.7000
   Max. Damping (<1)    DampMax         ....    0.9800
   Min. Damping (>=0)   DampMin         ....    0.0000
   Turn off err/grad.   DampErr         ....    0.1000

SCF Procedure:
 Maximum # iterations   MaxIter         ....   125
 SCF integral mode      SCFMode         .... Direct
   Integral package                     .... SHARK and LIBINT hybrid scheme
 Reset frequency        DirectResetFreq ....    20
 Integral Threshold     Thresh          ....  2.500e-11 Eh
 Primitive CutOff       TCut            ....  2.500e-12 Eh

Convergence Tolerance:
 Convergence Check Mode ConvCheckMode   .... Total+1el-Energy
 Convergence forced     ConvForced      .... 0
 Energy Change          TolE            ....  1.000e-08 Eh
 1-El. energy change                    ....  1.000e-05 Eh
 Orbital Gradient       TolG            ....  1.000e-05
 Orbital Rotation angle TolX            ....  1.000e-05
 DIIS Error             TolErr          ....  5.000e-07

------------------------------
INITIAL GUESS: MODEL POTENTIAL
------------------------------
Loading Hartree-Fock densities                     ... done
Calculating cut-offs                               ... done
Initializing the effective Hamiltonian             ... done
Setting up the integral package (SHARK)            ... done
Starting the Coulomb interaction                   ... done (   0.3 sec)
Making the grid                                    ... done (   1.4 sec)
Mapping shells                                     ... done
Starting the XC term evaluation                    ... done (   0.0 sec)
  promolecular density results
     # of electrons  =     79.998470051
     EX              =    -66.434931482
     EC              =     -2.672525821
     EX+EC           =    -69.107457303
Transforming the Hamiltonian                       ... done (   0.0 sec)
Diagonalizing the Hamiltonian                      ... done (   0.0 sec)
Back transforming the eigenvectors                 ... done (   0.0 sec)
Now organizing SCF variables                       ... done
                      ------------------
                      INITIAL GUESS DONE (   1.9 sec)
                      ------------------
             **** ENERGY FILE WAS UPDATED (Acetaminophen-PBE-GeoOpt-1.en.tmp) ****
Finished Guess after   2.9 sec
Maximum memory used throughout the entire GUESS-calculation: 14.0 MB


           ************************************************************
           *        Program running with 8 parallel MPI-processes     *
           *              working on a common directory               *
           ************************************************************

-------------------------------------------------------------------------------------------
                                      ORCA LEAN-SCF
                              memory conserving SCF solver
-------------------------------------------------------------------------------------------

----------------------------------------D-I-I-S--------------------------------------------
Iteration    Energy (Eh)           Delta-E    RMSDP     MaxDP     DIISErr   Damp  Time(sec)
-------------------------------------------------------------------------------------------
               ***  Starting incremental Fock matrix formation  ***
    1    -514.2301288298067448     0.00e+00  3.93e-03  1.08e-01  2.45e-01  0.700   3.5
    2    -514.3649156608896647    -1.35e-01  2.44e-03  5.59e-02  8.80e-02  0.700   6.0
                               ***Turning on AO-DIIS***
    3    -514.4083723346057013    -4.35e-02  8.88e-04  1.66e-02  3.01e-02  0.700   3.7
    4    -514.4368019209698559    -2.84e-02  1.45e-03  2.62e-02  1.38e-02  0.000   3.5
    5    -514.5004568788874622    -6.37e-02  3.64e-04  7.38e-03  8.79e-03  0.000   3.9
                              *** Initializing SOSCF ***
---------------------------------------S-O-S-C-F--------------------------------------
Iteration    Energy (Eh)           Delta-E    RMSDP     MaxDP     MaxGrad    Time(sec)
--------------------------------------------------------------------------------------
    6    -514.5011333820127675    -6.77e-04  1.38e-04  2.41e-03  1.89e-03     3.6
               *** Restarting incremental Fock matrix formation ***
    7    -514.5011697721238306    -3.64e-05  9.87e-05  2.39e-03  2.38e-04     3.4
    8    -514.5011658009650546     3.97e-06  4.45e-05  1.22e-03  6.27e-04     3.4
    9    -514.5011741249184070    -8.32e-06  4.11e-05  9.02e-04  2.57e-04     3.6
   10    -514.5011719856815944     2.14e-06  2.37e-05  6.10e-04  3.03e-04     5.2
   11    -514.5011753260707792    -3.34e-06  1.92e-05  5.72e-04  8.21e-05     3.9
   12    -514.5011748223487302     5.04e-07  1.24e-05  3.60e-04  1.46e-04     3.4
   13    -514.5011754653055505    -6.43e-07  5.37e-06  1.54e-04  1.96e-05     3.4
   14    -514.5011754133158774     5.20e-08  3.40e-06  1.02e-04  4.21e-05     3.5
   15    -514.5011754809875129    -6.77e-08  9.17e-07  2.20e-05  4.48e-06     3.4
   16    -514.5011754794138596     1.57e-09  5.72e-07  1.60e-05  7.95e-06     3.6
                 **** Energy Check signals convergence ****

               *****************************************************
               *                     SUCCESS                       *
               *           SCF CONVERGED AFTER  16 CYCLES          *
               *****************************************************

             **** ENERGY FILE WAS UPDATED (Acetaminophen-PBE-GeoOpt-1.en.tmp) ****

----------------
TOTAL SCF ENERGY
----------------

Total Energy       :       -514.50117547941386 Eh          -14000.28875 eV

Components:
Nuclear Repulsion  :        572.15528272498250 Eh           15569.13676 eV
Electronic Energy  :      -1086.65645820439636 Eh          -29569.42551 eV
One Electron Energy:      -1833.88318937612075 Eh          -49902.49858 eV
Two Electron Energy:        747.22673117172440 Eh           20333.07307 eV

Virial components:
Potential Energy   :      -1024.30808363507572 Eh          -27872.83998 eV
Kinetic Energy     :        509.80690815566180 Eh           13872.55124 eV
Virial Ratio       :          2.00920793196141

DFT components:
N(Alpha)           :       39.999999276605 electrons
N(Beta)            :       39.999999276605 electrons
N(Total)           :       79.999998553209 electrons
E(X)               :      -67.511716804348 Eh       
E(C)               :       -2.694239469134 Eh       
E(XC)              :      -70.205956273481 Eh       

---------------
SCF CONVERGENCE
---------------

  Last Energy change         ...   -1.5737e-09  Tolerance :   1.0000e-08
  Last MAX-Density change    ...    1.6010e-05  Tolerance :   1.0000e-07
  Last RMS-Density change    ...    5.7162e-07  Tolerance :   5.0000e-09
  Last DIIS Error            ...    1.8861e-03  Tolerance :   5.0000e-07
  Last Orbital Gradient      ...    7.9476e-06  Tolerance :   1.0000e-05
  Last Orbital Rotation      ...    1.4542e-05  Tolerance :   1.0000e-05


----------------
ORBITAL ENERGIES
----------------

  NO   OCC          E(Eh)            E(eV) 
   0   2.0000     -18.783405      -511.1224 
   1   2.0000     -18.728023      -509.6154 
   2   2.0000     -14.037057      -381.9677 
   3   2.0000      -9.993309      -271.9318 
   4   2.0000      -9.949290      -270.7339 
   5   2.0000      -9.935256      -270.3521 
   6   2.0000      -9.903534      -269.4888 
   7   2.0000      -9.902323      -269.4559 
   8   2.0000      -9.896179      -269.2887 
   9   2.0000      -9.894664      -269.2475 
  10   2.0000      -9.889798      -269.1151 
  11   2.0000      -0.958318       -26.0772 
  12   2.0000      -0.934846       -25.4385 
  13   2.0000      -0.853338       -23.2205 
  14   2.0000      -0.763720       -20.7819 
  15   2.0000      -0.686031       -18.6678 
  16   2.0000      -0.673305       -18.3216 
  17   2.0000      -0.641656       -17.4604 
  18   2.0000      -0.569598       -15.4995 
  19   2.0000      -0.564656       -15.3651 
  20   2.0000      -0.511202       -13.9105 
  21   2.0000      -0.493064       -13.4169 
  22   2.0000      -0.487244       -13.2586 
  23   2.0000      -0.426244       -11.5987 
  24   2.0000      -0.410022       -11.1573 
  25   2.0000      -0.408199       -11.1077 
  26   2.0000      -0.392996       -10.6940 
  27   2.0000      -0.373680       -10.1683 
  28   2.0000      -0.371585       -10.1113 
  29   2.0000      -0.366631        -9.9765 
  30   2.0000      -0.351322        -9.5600 
  31   2.0000      -0.348074        -9.4716 
  32   2.0000      -0.341946        -9.3048 
  33   2.0000      -0.327667        -8.9163 
  34   2.0000      -0.302857        -8.2412 
  35   2.0000      -0.295527        -8.0417 
  36   2.0000      -0.250911        -6.8276 
  37   2.0000      -0.229415        -6.2427 
  38   2.0000      -0.204147        -5.5551 
  39   2.0000      -0.175898        -4.7864 
  40   0.0000      -0.039387        -1.0718 
  41   0.0000      -0.035274        -0.9599 
  42   0.0000       0.012350         0.3361 
  43   0.0000       0.016923         0.4605 
  44   0.0000       0.027515         0.7487 
  45   0.0000       0.050790         1.3821 
  46   0.0000       0.071015         1.9324 
  47   0.0000       0.095536         2.5997 
  48   0.0000       0.100907         2.7458 
  49   0.0000       0.106871         2.9081 
  50   0.0000       0.122112         3.3228 
*Only the first 10 virtual orbitals were printed.

                    ********************************
                    * MULLIKEN POPULATION ANALYSIS *
                    ********************************

-----------------------
MULLIKEN ATOMIC CHARGES
-----------------------
   0 O :   -0.166015
   1 O :   -0.212221
   2 N :   -0.067103
   3 C :    0.108920
   4 C :   -0.032409
   5 C :   -0.020965
   6 C :   -0.069792
   7 C :   -0.047148
   8 C :    0.162061
   9 C :    0.038063
  10 C :   -0.020980
  11 H :   -0.005117
  12 H :   -0.035618
  13 H :    0.109754
  14 H :   -0.034227
  15 H :   -0.017996
  16 H :    0.047190
  17 H :    0.047211
  18 H :    0.044831
  19 H :    0.171561
Sum of atomic charges:   -0.0000000

--------------------------------
MULLIKEN REDUCED ORBITAL CHARGES
--------------------------------
  0 O s       :     3.673799  s :     3.673799
      pz      :     1.806568  p :     4.478774
      px      :     1.391288
      py      :     1.280919
      dz2     :     0.001979  d :     0.013441
      dxz     :     0.002639
      dyz     :     0.000480
      dx2y2   :     0.006582
      dxy     :     0.001760

  1 O s       :     3.760475  s :     3.760475
      pz      :     1.393198  p :     4.435033
      px      :     1.745130
      py      :     1.296705
      dz2     :     0.001852  d :     0.016713
      dxz     :     0.000020
      dyz     :     0.005299
      dx2y2   :     0.005754
      dxy     :     0.003788

  2 N s       :     3.337320  s :     3.337320
      pz      :     1.616936  p :     3.710135
      px      :     1.069398
      py      :     1.023800
      dz2     :     0.002042  d :     0.019648
      dxz     :     0.004572
      dyz     :     0.000884
      dx2y2   :     0.006688
      dxy     :     0.005462

  3 C s       :     2.937153  s :     2.937153
      pz      :     1.031690  p :     2.898111
      px      :     0.864338
      py      :     1.002083
      dz2     :     0.004012  d :     0.055816
      dxz     :     0.012370
      dyz     :     0.007010
      dx2y2   :     0.017814
      dxy     :     0.014610

  4 C s       :     3.274568  s :     3.274568
      pz      :     0.987733  p :     2.726856
      px      :     0.862038
      py      :     0.877084
      dz2     :     0.002284  d :     0.030985
      dxz     :     0.004968
      dyz     :     0.004352
      dx2y2   :     0.009313
      dxy     :     0.010069

  5 C s       :     3.228122  s :     3.228122
      pz      :     1.041949  p :     2.761172
      px      :     0.926085
      py      :     0.793138
      dz2     :     0.002389  d :     0.031671
      dxz     :     0.006988
      dyz     :     0.002539
      dx2y2   :     0.009158
      dxy     :     0.010598

  6 C s       :     3.216496  s :     3.216496
      pz      :     1.060689  p :     2.822150
      px      :     0.954252
      py      :     0.807210
      dz2     :     0.002384  d :     0.031146
      dxz     :     0.006241
      dyz     :     0.002463
      dx2y2   :     0.008886
      dxy     :     0.011172

  7 C s       :     3.252439  s :     3.252439
      pz      :     1.040029  p :     2.764319
      px      :     0.832908
      py      :     0.891382
      dz2     :     0.002354  d :     0.030390
      dxz     :     0.004848
      dyz     :     0.004122
      dx2y2   :     0.008595
      dxy     :     0.010472

  8 C s       :     2.945739  s :     2.945739
      pz      :     0.998028  p :     2.818808
      px      :     0.798997
      py      :     1.021784
      dz2     :     0.005096  d :     0.073392
      dxz     :     0.016643
      dyz     :     0.007410
      dx2y2   :     0.023485
      dxy     :     0.020758

  9 C s       :     3.087658  s :     3.087658
      pz      :     0.881931  p :     2.764447
      px      :     0.966770
      py      :     0.915746
      dz2     :     0.005650  d :     0.109832
      dxz     :     0.007891
      dyz     :     0.024434
      dx2y2   :     0.023496
      dxy     :     0.048362

 10 C s       :     2.973340  s :     2.973340
      pz      :     1.004955  p :     3.025803
      px      :     0.998267
      py      :     1.022582
      dz2     :     0.004322  d :     0.021837
      dxz     :     0.001814
      dyz     :     0.006418
      dx2y2   :     0.003224
      dxy     :     0.006059

 11 H s       :     0.979101  s :     0.979101
      pz      :     0.005146  p :     0.026017
      px      :     0.010619
      py      :     0.010252

 12 H s       :     1.012296  s :     1.012296
      pz      :     0.005672  p :     0.023322
      px      :     0.004445
      py      :     0.013206

 13 H s       :     0.846385  s :     0.846385
      pz      :     0.012295  p :     0.043861
      px      :     0.007832
      py      :     0.023734

 14 H s       :     1.010895  s :     1.010895
      pz      :     0.005683  p :     0.023333
      px      :     0.004418
      py      :     0.013231

 15 H s       :     0.994646  s :     0.994646
      pz      :     0.005423  p :     0.023350
      px      :     0.008546
      py      :     0.009381

 16 H s       :     0.928256  s :     0.928256
      pz      :     0.011257  p :     0.024554
      px      :     0.005184
      py      :     0.008113

 17 H s       :     0.929722  s :     0.929722
      pz      :     0.005073  p :     0.023067
      px      :     0.008844
      py      :     0.009150

 18 H s       :     0.930666  s :     0.930666
      pz      :     0.010936  p :     0.024503
      px      :     0.005127
      py      :     0.008440

 19 H s       :     0.759543  s :     0.759543
      pz      :     0.018421  p :     0.068896
      px      :     0.014635
      py      :     0.035840



                     *******************************
                     * LOEWDIN POPULATION ANALYSIS *
                     *******************************

----------------------
LOEWDIN ATOMIC CHARGES
----------------------
   0 O :   -0.039712
   1 O :   -0.176096
   2 N :    0.019017
   3 C :   -0.007692
   4 C :   -0.031133
   5 C :   -0.047546
   6 C :   -0.071596
   7 C :   -0.051825
   8 C :    0.022495
   9 C :    0.051479
  10 C :   -0.091519
  11 H :    0.033619
  12 H :    0.026010
  13 H :    0.085229
  14 H :    0.026028
  15 H :    0.034316
  16 H :    0.041185
  17 H :    0.045599
  18 H :    0.039803
  19 H :    0.092339

-------------------------------
LOEWDIN REDUCED ORBITAL CHARGES
-------------------------------
  0 O s       :     3.421335  s :     3.421335
      pz      :     1.773875  p :     4.591804
      px      :     1.437696
      py      :     1.380233
      dz2     :     0.003994  d :     0.026573
      dxz     :     0.003902
      dyz     :     0.000240
      dx2y2   :     0.015015
      dxy     :     0.003422

  1 O s       :     3.556883  s :     3.556883
      pz      :     1.394591  p :     4.589493
      px      :     1.754330
      py      :     1.440572
      dz2     :     0.004136  d :     0.029721
      dxz     :     0.000019
      dyz     :     0.006885
      dx2y2   :     0.012648
      dxy     :     0.006033

  2 N s       :     3.055404  s :     3.055404
      pz      :     1.554696  p :     3.871193
      px      :     1.161094
      py      :     1.155403
      dz2     :     0.004539  d :     0.054386
      dxz     :     0.008786
      dyz     :     0.001740
      dx2y2   :     0.021407
      dxy     :     0.017913

  3 C s       :     2.825230  s :     2.825230
      pz      :     1.015987  p :     3.040670
      px      :     0.934938
      py      :     1.089744
      dz2     :     0.009449  d :     0.141792
      dxz     :     0.026134
      dyz     :     0.014596
      dx2y2   :     0.050039
      dxy     :     0.041575

  4 C s       :     2.859355  s :     2.859355
      pz      :     0.979332  p :     3.085197
      px      :     1.061555
      py      :     1.044310
      dz2     :     0.006074  d :     0.086581
      dxz     :     0.010465
      dyz     :     0.008980
      dx2y2   :     0.030147
      dxy     :     0.030915

  5 C s       :     2.857240  s :     2.857240
      pz      :     1.018756  p :     3.102311
      px      :     1.057178
      py      :     1.026377
      dz2     :     0.006055  d :     0.087995
      dxz     :     0.015217
      dyz     :     0.004704
      dx2y2   :     0.029742
      dxy     :     0.032277

  6 C s       :     2.862094  s :     2.862094
      pz      :     1.030523  p :     3.121653
      px      :     1.066409
      py      :     1.024722
      dz2     :     0.006363  d :     0.087849
      dxz     :     0.013483
      dyz     :     0.004489
      dx2y2   :     0.029326
      dxy     :     0.034189

  7 C s       :     2.860065  s :     2.860065
      pz      :     1.020642  p :     3.106710
      px      :     1.047995
      py      :     1.038072
      dz2     :     0.006169  d :     0.085051
      dxz     :     0.010173
      dyz     :     0.008304
      dx2y2   :     0.028381
      dxy     :     0.032024

  8 C s       :     2.839579  s :     2.839579
      pz      :     0.982340  p :     2.967041
      px      :     0.892369
      py      :     1.092332
      dz2     :     0.011157  d :     0.170884
      dxz     :     0.033117
      dyz     :     0.015232
      dx2y2   :     0.059320
      dxy     :     0.052059

  9 C s       :     2.847303  s :     2.847303
      pz      :     0.865139  p :     2.849817
      px      :     0.978140
      py      :     1.006538
      dz2     :     0.013825  d :     0.251401
      dxz     :     0.015125
      dyz     :     0.046656
      dx2y2   :     0.056601
      dxy     :     0.119194

 10 C s       :     2.849610  s :     2.849610
      pz      :     1.063172  p :     3.177399
      px      :     1.042685
      py      :     1.071542
      dz2     :     0.013512  d :     0.064510
      dxz     :     0.003796
      dyz     :     0.018365
      dx2y2   :     0.009248
      dxy     :     0.019588

 11 H s       :     0.886275  s :     0.886275
      pz      :     0.015405  p :     0.080106
      px      :     0.031643
      py      :     0.033058

 12 H s       :     0.904442  s :     0.904442
      pz      :     0.016309  p :     0.069548
      px      :     0.013800
      py      :     0.039439

 13 H s       :     0.793525  s :     0.793525
      pz      :     0.037215  p :     0.121246
      px      :     0.018823
      py      :     0.065208

 14 H s       :     0.904150  s :     0.904150
      pz      :     0.016768  p :     0.069822
      px      :     0.013699
      py      :     0.039356

 15 H s       :     0.895492  s :     0.895492
      pz      :     0.016220  p :     0.070192
      px      :     0.025062
      py      :     0.028910

 16 H s       :     0.889667  s :     0.889667
      pz      :     0.032031  p :     0.069148
      px      :     0.014604
      py      :     0.022514

 17 H s       :     0.887647  s :     0.887647
      pz      :     0.012463  p :     0.066754
      px      :     0.028714
      py      :     0.025578

 18 H s       :     0.891082  s :     0.891082
      pz      :     0.030904  p :     0.069115
      px      :     0.014461
      py      :     0.023749

 19 H s       :     0.734428  s :     0.734428
      pz      :     0.047344  p :     0.173233
      px      :     0.033240
      py      :     0.092649



                      *****************************
                      * MAYER POPULATION ANALYSIS *
                      *****************************

  NA   - Mulliken gross atomic population
  ZA   - Total nuclear charge
  QA   - Mulliken gross atomic charge
  VA   - Mayer's total valence
  BVA  - Mayer's bonded valence
  FA   - Mayer's free valence

  ATOM       NA         ZA         QA         VA         BVA        FA
  0 O      8.1660     8.0000    -0.1660     2.2743     2.2743     0.0000
  1 O      8.2122     8.0000    -0.2122     2.3122     2.3122     0.0000
  2 N      7.0671     7.0000    -0.0671     3.2212     3.2212    -0.0000
  3 C      5.8911     6.0000     0.1089     3.9100     3.9100    -0.0000
  4 C      6.0324     6.0000    -0.0324     3.8412     3.8412    -0.0000
  5 C      6.0210     6.0000    -0.0210     3.7712     3.7712    -0.0000
  6 C      6.0698     6.0000    -0.0698     3.7977     3.7977    -0.0000
  7 C      6.0471     6.0000    -0.0471     3.8698     3.8698     0.0000
  8 C      5.8379     6.0000     0.1621     3.9597     3.9597    -0.0000
  9 C      5.9619     6.0000     0.0381     4.3332     4.3332     0.0000
 10 C      6.0210     6.0000    -0.0210     3.8654     3.8654    -0.0000
 11 H      1.0051     1.0000    -0.0051     1.0516     1.0516    -0.0000
 12 H      1.0356     1.0000    -0.0356     0.9876     0.9876    -0.0000
 13 H      0.8902     1.0000     0.1098     1.0064     1.0064    -0.0000
 14 H      1.0342     1.0000    -0.0342     0.9886     0.9886     0.0000
 15 H      1.0180     1.0000    -0.0180     0.9932     0.9932     0.0000
 16 H      0.9528     1.0000     0.0472     0.9962     0.9962    -0.0000
 17 H      0.9528     1.0000     0.0472     1.0217     1.0217     0.0000
 18 H      0.9552     1.0000     0.0448     0.9966     0.9966    -0.0000
 19 H      0.8284     1.0000     0.1716     1.0161     1.0161    -0.0000

  Mayer bond orders larger than 0.100000
B(  0-O ,  8-C ) :   1.2000 B(  0-O , 19-H ) :   0.9625 B(  1-O ,  9-C ) :   2.0309 
B(  2-N ,  3-C ) :   1.0925 B(  2-N ,  9-C ) :   1.1298 B(  2-N , 13-H ) :   0.9094 
B(  3-C ,  4-C ) :   1.3340 B(  3-C ,  5-C ) :   1.3174 B(  4-C ,  6-C ) :   1.3800 
B(  4-C , 11-H ) :   0.9733 B(  5-C ,  7-C ) :   1.3819 B(  5-C , 12-H ) :   0.9798 
B(  6-C ,  8-C ) :   1.2968 B(  6-C , 14-H ) :   0.9732 B(  7-C ,  8-C ) :   1.3412 
B(  7-C , 15-H ) :   0.9839 B(  9-C , 10-C ) :   1.0230 B( 10-C , 16-H ) :   0.9510 
B( 10-C , 17-H ) :   0.9515 B( 10-C , 18-H ) :   0.9514 

-------
TIMINGS
-------

Total SCF time: 0 days 0 hours 1 min 7 sec 

Total time                  ....      67.836 sec
Sum of individual times     ....      64.461 sec  ( 95.0%)

SCF preparation             ....       3.900 sec  (  5.7%)
Fock matrix formation       ....      56.431 sec  ( 83.2%)
  Startup                   ....       0.799 sec  (  1.4% of F)
  Split-RI-J                ....       1.923 sec  (  3.4% of F)
  XC integration            ....      52.416 sec  ( 92.9% of F)
    XC Preparation          ....       0.000 sec  (  0.0% of XC)
    Basis function eval.    ....       0.523 sec  (  1.0% of XC)
    Density eval.           ....       0.356 sec  (  0.7% of XC)
    XC-Functional eval.     ....       0.082 sec  (  0.2% of XC)
    XC-Potential eval.      ....       0.417 sec  (  0.8% of XC)
Diagonalization             ....       0.000 sec  (  0.0%)
Density matrix formation    ....       1.252 sec  (  1.8%)
Total Energy calculation    ....       0.650 sec  (  1.0%)
Population analysis         ....       0.212 sec  (  0.3%)
Orbital Transformation      ....       0.134 sec  (  0.2%)
Orbital Orthonormalization  ....       0.000 sec  (  0.0%)
DIIS solution               ....       0.993 sec  (  1.5%)
SOSCF solution              ....       0.889 sec  (  1.3%)
Finished LeanSCF after  67.9 sec

Maximum memory used throughout the entire LEANSCF-calculation: 18.5 MB


           ************************************************************
           *        Program running with 8 parallel MPI-processes     *
           *              working on a common directory               *
           ************************************************************

------------------------------------------------------------------------------
                         ORCA PROPERTY INTEGRAL CALCULATIONS
------------------------------------------------------------------------------

GBWName                                   ... Acetaminophen-PBE-GeoOpt-1.gbw
Number of atoms                           ...     20
Number of basis functions                 ...    199
Max core memory                           ...   1024 MB

Dipole integrals                          ... YES
Quadrupole integrals                      ...  NO
Linear momentum integrals                 ...  NO
Angular momentum integrals                ...  NO
Higher moments length integrals           ...  NO
Higher moments velocity integrals         ...  NO
Kinetic energy integrals                  ...  NO
GIAO right hand sides                     ...  NO
GIAO dipole derivative integrals          ...  NO
SOC integrals                             ...  NO
EPR diamagnetic integrals (GIAO)          ...  NO
EPR gauge integrals                       ...  NO
Field gradient integrals                  ...  NO (   0 nuclei)
Spin-dipole/Fermi contact integrals       ...  NO (   0 nuclei)
Contact density integrals                 ...  NO (   0 nuclei)
Nucleus-orbit integrals                   ...  NO (   0 nuclei)
Geometric perturbations                   ...  NO (  20 nuclei)

Choice of electric origin   ... Center of mass
Position of electric origin ... ( -0.0530,  0.0379,  0.0001) 
Choice of magnetic origin   ... GIAO
Position of magnetic origin ... (  0.0000,  0.0000,  0.0000) 

Calculating integrals                     ... Electric Dipole (Length)     done (  0.1 sec)

Property integrals calculated in   0.1 sec

Maximum memory used throughout the entire PROPINT-calculation: 10.8 MB

-------------------------   --------------------
FINAL SINGLE POINT ENERGY      -514.501175479414
-------------------------   --------------------



           ************************************************************
           *        Program running with 8 parallel MPI-processes     *
           *              working on a common directory               *
           ************************************************************
------------------------------------------------------------------------------
                         ORCA SCF GRADIENT CALCULATION
------------------------------------------------------------------------------

Nuc. rep. gradient        (SHARK) ... done (  0.0 sec)
HCore & Overlap gradient  (SHARK) ... done (  0.1 sec)
Split-RIJ-J gradient      (SHARK) ... done (  0.2 sec)
XC gradient                       ... done (  5.4 sec)

------------------
CARTESIAN GRADIENT
------------------

   1   O   :   -0.008895558    0.008884131    0.000060725
   2   O   :   -0.010654072    0.001310567   -0.000087295
   3   N   :    0.012971990   -0.010040553   -0.000078869
   4   C   :    0.013573373   -0.005786495    0.000055973
   5   C   :   -0.019193243   -0.014813102    0.000014210
   6   C   :   -0.009315190   -0.002450962    0.000023097
   7   C   :    0.010664679    0.010173380    0.000001577
   8   C   :    0.002713113    0.005550154    0.000021666
   9   C   :   -0.013522032   -0.012222076   -0.000119352
  10   C   :    0.001527346    0.005635964    0.000156568
  11   C   :    0.000229500   -0.000936788   -0.000496570
  12   H   :    0.013992439   -0.001303942    0.000020458
  13   H   :    0.003789643    0.009230206    0.000002543
  14   H   :    0.002784646    0.001560415   -0.000053996
  15   H   :   -0.003844751   -0.009660067   -0.000004942
  16   H   :   -0.007641572    0.004967613   -0.000001560
  17   H   :    0.002985173    0.007902661    0.007159552
  18   H   :    0.003756695   -0.005433519    0.000003176
  19   H   :    0.002793164    0.008340497   -0.006680470
  20   H   :    0.001284656   -0.000908085    0.000003508

Difference to translation invariance:
           :   -0.0000000000   -0.0000000000   -0.0000000000

Difference to rotation invariance:
           :    0.0000225348    0.0000151582   -0.0003624728

Norm of the Cartesian gradient     ...    0.0534113575
RMS gradient                       ...    0.0068953766
MAX gradient                       ...    0.0191932429

-------
TIMINGS
-------

Total SCF gradient time     ....        5.758 sec

Densities                   ....       0.000 sec  (  0.0%)
One electron gradient       ....       0.061 sec  (  1.1%)
RI-J Coulomb gradient       ....       0.249 sec  (  4.3%)
XC gradient                 ....       5.448 sec  ( 94.6%)

Maximum memory used throughout the entire SCFGRAD-calculation: 24.2 MB
------------------------------------------------------------------------------
                         ORCA GEOMETRY RELAXATION STEP
------------------------------------------------------------------------------

Reading the OPT-File                    .... done
Getting information on internals        .... done
Copying old internal coords+grads       .... done
Making the new internal coordinates     .... (2022 redundants) done
Validating the new internal coordinates .... (2022 redundants) done
Calculating the B-matrix                .... done
Calculating the G,G- and P matrices     .... done
Transforming gradient to internals      .... done
Projecting the internal gradient        .... done
Number of atoms                         ....  20
Number of internal coordinates          ....  90
Current Energy                          ....  -514.501175479 Eh
Current gradient norm                   ....     0.053411357 Eh/bohr
Maximum allowed component of the step   ....  0.300
Current trust radius                    ....  0.300
Evaluating the initial hessian          ....  (Almloef) done
Projecting the Hessian                  .... done
Forming the augmented Hessian           .... done
Diagonalizing the augmented Hessian     .... done
Last element of RFO vector              ....  0.990933143
Lowest eigenvalues of augmented Hessian:
 -0.008095595  0.012154034  0.017460793  0.022914222  0.023457358
Length of the computed step             ....  0.135585222
The final length of the internal step   ....  0.135585222
Converting the step to Cartesian space:
 Initial RMS(Int)=    0.0142919373
Transforming coordinates:
 Iter   0:  RMS(Cart)=    0.0613143442 RMS(Int)=    1.7521871779
done
Storing new coordinates                 .... done

                                .--------------------.
          ----------------------|Geometry convergence|-------------------------
          Item                value                   Tolerance       Converged
          ---------------------------------------------------------------------
          RMS gradient        0.0064276547            0.0001000000      NO
          MAX gradient        0.0177808716            0.0003000000      NO
          RMS step            0.0142919373            0.0020000000      NO
          MAX step            0.0341036865            0.0040000000      NO
          ........................................................
          Max(Bonds)      0.0170      Max(Angles)    1.95
          Max(Dihed)        0.16      Max(Improp)    0.00
          ---------------------------------------------------------------------

The optimization has not yet converged - more geometry cycles are needed


    ---------------------------------------------------------------------------
                         Redundant Internal Coordinates
                            (Angstroem and degrees)

        Definition                    Value    dE/dq     Step     New-Value
    ----------------------------------------------------------------------------
     1. B(C   3,N   2)                1.3952 -0.017781  0.0169    1.4121   
     2. B(C   4,C   3)                1.3948 -0.015848  0.0136    1.4084   
     3. B(C   5,C   3)                1.3949 -0.015656  0.0134    1.4083   
     4. B(C   6,C   4)                1.3949 -0.009955  0.0086    1.4035   
     5. B(C   7,C   5)                1.3949 -0.007423  0.0062    1.4011   
     6. B(C   8,C   6)                1.3948 -0.015233  0.0129    1.4077   
     7. B(C   8,O   0)                1.3611 -0.005760  0.0048    1.3659   
     8. B(C   8,C   7)                1.3947 -0.009010  0.0075    1.4022   
     9. B(C   9,N   2)                1.4013  0.010241 -0.0099    1.3914   
    10. B(C   9,O   1)                1.2269  0.000885 -0.0005    1.2264   
    11. B(C  10,C   9)                1.5081 -0.013288  0.0170    1.5251   
    12. B(H  11,C   4)                1.0810 -0.009624  0.0134    1.0944   
    13. B(H  12,C   5)                1.0870 -0.009937  0.0141    1.1011   
    14. B(H  13,N   2)                1.0179 -0.002149  0.0027    1.0206   
    15. B(H  14,C   6)                1.0869 -0.010363  0.0147    1.1017   
    16. B(H  15,C   7)                1.0866 -0.008799  0.0125    1.0991   
    17. B(H  16,C  10)                1.0936 -0.010552  0.0154    1.1089   
    18. B(H  17,C  10)                1.0935 -0.006419  0.0093    1.1028   
    19. B(H  18,C  10)                1.0937 -0.010481  0.0153    1.1089   
    20. B(H  19,O   0)                0.9727 -0.000747  0.0008    0.9735   
    21. A(C   8,O   0,H  19)          108.90  0.002537   -0.39    108.51   
    22. A(C   3,N   2,C   9)          128.13 -0.008025    1.16    129.28   
    23. A(C   3,N   2,H  13)          115.25  0.001742   -0.21    115.04   
    24. A(C   9,N   2,H  13)          116.62  0.006283   -0.95    115.68   
    25. A(N   2,C   3,C   4)          120.00 -0.014752    1.95    121.95   
    26. A(N   2,C   3,C   5)          120.00  0.007335   -0.99    119.01   
    27. A(C   4,C   3,C   5)          120.00  0.007417   -0.96    119.04   
    28. A(C   3,C   4,H  11)          124.27  0.010249   -1.64    122.63   
    29. A(C   3,C   4,C   6)          119.99  0.000417   -0.03    119.96   
    30. A(C   6,C   4,H  11)          115.74 -0.010666    1.67    117.41   
    31. A(C   3,C   5,C   7)          120.00 -0.006548    0.88    120.87   
    32. A(C   7,C   5,H  12)          119.21  0.002328   -0.29    118.92   
    33. A(C   3,C   5,H  12)          120.79  0.004220   -0.59    120.21   
    34. A(C   4,C   6,C   8)          120.00 -0.005479    0.75    120.76   
    35. A(C   8,C   6,H  14)          120.65  0.003583   -0.51    120.14   
    36. A(C   4,C   6,H  14)          119.35  0.001896   -0.24    119.11   
    37. A(C   8,C   7,H  15)          120.34  0.002955   -0.43    119.91   
    38. A(C   5,C   7,H  15)          119.66 -0.001927    0.34    120.00   
    39. A(C   5,C   7,C   8)          120.00 -0.001028    0.09    120.09   
    40. A(O   0,C   8,C   6)          120.00 -0.013443    1.78    121.78   
    41. A(C   6,C   8,C   7)          120.00  0.005220   -0.72    119.28   
    42. A(O   0,C   8,C   7)          120.00  0.008223   -1.05    118.94   
    43. A(N   2,C   9,C  10)          111.76 -0.005725    0.76    112.53   
    44. A(O   1,C   9,C  10)          120.80 -0.009540    1.17    121.97   
    45. A(O   1,C   9,N   2)          127.44  0.015265   -1.94    125.50   
    46. A(H  17,C  10,H  18)          108.89  0.000190   -0.00    108.89   
    47. A(H  16,C  10,H  18)          109.54  0.004097   -0.76    108.78   
    48. A(C   9,C  10,H  18)          109.84 -0.004145    0.73    110.58   
    49. A(H  16,C  10,H  17)          108.98  0.000366   -0.08    108.90   
    50. A(C   9,C  10,H  17)          109.82  0.003517   -0.59    109.24   
    51. A(C   9,C  10,H  16)          109.74 -0.003942    0.68    110.42   
    52. D(C   5,C   3,N   2,H  13)      0.01  0.000007   -0.01     -0.00   
    53. D(C   5,C   3,N   2,C   9)    179.98 -0.000007    0.01    180.00   
    54. D(C   4,C   3,N   2,C   9)      0.00 -0.000001    0.00      0.01   
    55. D(C   4,C   3,N   2,H  13)   -179.97  0.000012   -0.02   -179.99   
    56. D(C   6,C   4,C   3,C   5)      0.01  0.000013   -0.02     -0.01   
    57. D(H  11,C   4,C   3,C   5)   -179.97  0.000019   -0.03   -180.01   
    58. D(H  11,C   4,C   3,N   2)      0.01  0.000014   -0.02     -0.01   
    59. D(C   6,C   4,C   3,N   2)    180.00  0.000008   -0.01    179.99   
    60. D(H  12,C   5,C   3,N   2)      0.01 -0.000000    0.00      0.01   
    61. D(H  12,C   5,C   3,C   4)    179.99 -0.000010    0.01    180.00   
    62. D(C   7,C   5,C   3,C   4)     -0.00 -0.000005    0.01      0.00   
    63. D(C   7,C   5,C   3,N   2)   -179.99  0.000005   -0.00   -179.99   
    64. D(C   8,C   6,C   4,H  11)    179.98 -0.000013    0.03    180.00   
    65. D(C   8,C   6,C   4,C   3)     -0.01 -0.000010    0.02      0.00   
    66. D(H  14,C   6,C   4,C   3)   -179.99  0.000005   -0.01   -180.00   
    67. D(H  14,C   6,C   4,H  11)      0.00  0.000001   -0.00      0.00   
    68. D(H  15,C   7,C   5,H  12)     -0.01 -0.000007    0.01     -0.00   
    69. D(H  15,C   7,C   5,C   3)    179.98 -0.000012    0.02    180.00   
    70. D(C   8,C   7,C   5,H  12)   -180.00 -0.000001    0.00   -180.00   
    71. D(C   8,C   7,C   5,C   3)     -0.00 -0.000006    0.01      0.00   
    72. D(C   6,C   8,C   7,H  15)   -179.98  0.000015   -0.02   -180.00   
    73. D(C   6,C   8,C   7,C   5)      0.00  0.000008   -0.01     -0.01   
    74. D(O   0,C   8,C   7,H  15)     -0.06 -0.000036    0.05     -0.01   
    75. D(O   0,C   8,C   7,C   5)    179.93 -0.000043    0.06    179.98   
    76. D(C   7,C   8,C   6,H  14)    179.98 -0.000015    0.03    180.00   
    77. D(C   7,C   8,C   6,C   4)      0.00 -0.000000    0.00      0.01   
    78. D(O   0,C   8,C   6,H  14)      0.05  0.000018   -0.04      0.02   
    79. D(O   0,C   8,C   6,C   4)   -179.92  0.000033   -0.07   -179.98   
    80. D(C   7,C   8,O   0,H  19)   -179.97  0.000020   -0.04   -180.01   
    81. D(C   6,C   8,O   0,H  19)     -0.05 -0.000016    0.03     -0.02   
    82. D(O   1,C   9,N   2,C   3)      0.19  0.000103   -0.16      0.03   
    83. D(C  10,C   9,N   2,H  13)     -0.03  0.000020   -0.06     -0.09   
    84. D(C  10,C   9,N   2,C   3)   -180.00  0.000035   -0.09   -180.09   
    85. D(O   1,C   9,N   2,H  13)   -179.83  0.000088   -0.14   -179.97   
    86. D(H  18,C  10,C   9,O   1)   -121.43  0.000047   -0.03   -121.46   
    87. D(H  17,C  10,C   9,N   2)    178.49 -0.000099   -0.00    178.48   
    88. D(H  17,C  10,C   9,O   1)     -1.69 -0.000108    0.06     -1.63   
    89. D(H  16,C  10,C   9,N   2)    -61.73  0.000085   -0.04    -61.77   
    90. D(H  16,C  10,C   9,O   1)    118.09  0.000076    0.02    118.11   
    ----------------------------------------------------------------------------

Geometry step timings:
Preparation and reading OPT file:      0.005 s (14.756 %)
Internal coordinates            :      0.001 s ( 2.595 %)
B/P matrices and projection     :      0.002 s ( 5.299 %)
Hessian update/contruction      :      0.005 s (13.689 %)
Making the step                 :      0.002 s ( 4.747 %)
Converting the step to Cartesian:      0.001 s ( 1.530 %)
Storing new data                :      0.001 s ( 3.442 %)
Checking convergence            :      0.000 s ( 0.011 %)
Final printing                  :      0.019 s (53.922 %)
Total time                      :      0.036 s

Time for energy+gradient        :     82.213 s
Time for complete geometry iter :     83.230 s

         *************************************************************
         *                GEOMETRY OPTIMIZATION CYCLE   2            *
         *************************************************************
---------------------------------
CARTESIAN COORDINATES (ANGSTROEM)
---------------------------------
  O      3.905231    0.402428   -0.000138
  O     -2.639126    1.392623    0.001333
  N     -1.591642   -0.686979    0.001231
  C     -0.214829   -0.373191    0.000596
  C      0.246262    0.957627    0.000590
  C      0.724699   -1.422268    0.000127
  C      1.624656    1.221849    0.000249
  C      2.100159   -1.155604   -0.000244
  C      2.559380    0.169288   -0.000110
  C     -2.689887    0.167264    0.001809
  C     -4.015994   -0.585991    0.000211
  H     -0.431451    1.816975    0.000839
  H      0.385376   -2.469818    0.000072
  H     -1.807299   -1.684529    0.001276
  H      1.969803    2.268061    0.000271
  H      2.820888   -1.985462   -0.000561
  H     -4.109221   -1.203276   -0.916323
  H     -4.846060    0.139593    0.028332
  H     -4.088594   -1.249153    0.886038
  H      4.052247    1.364762   -0.000198

----------------------------
CARTESIAN COORDINATES (A.U.)
----------------------------
  NO LB      ZA    FRAG     MASS         X           Y           Z
   0 O     8.0000    0    15.999    7.379817    0.760480   -0.000260
   1 O     8.0000    0    15.999   -4.987225    2.631676    0.002518
   2 N     7.0000    0    14.007   -3.007767   -1.298202    0.002326
   3 C     6.0000    0    12.011   -0.405967   -0.705228    0.001127
   4 C     6.0000    0    12.011    0.465368    1.809653    0.001114
   5 C     6.0000    0    12.011    1.369483   -2.687697    0.000241
   6 C     6.0000    0    12.011    3.070155    2.308959    0.000470
   7 C     6.0000    0    12.011    3.968726   -2.183775   -0.000461
   8 C     6.0000    0    12.011    4.836527    0.319908   -0.000207
   9 C     6.0000    0    12.011   -5.083149    0.316084    0.003418
  10 C     6.0000    0    12.011   -7.589128   -1.107363    0.000399
  11 H     1.0000    0     1.008   -0.815324    3.433586    0.001586
  12 H     1.0000    0     1.008    0.728255   -4.667280    0.000136
  13 H     1.0000    0     1.008   -3.415301   -3.183299    0.002411
  14 H     1.0000    0     1.008    3.722388    4.286014    0.000512
  15 H     1.0000    0     1.008    5.330706   -3.751979   -0.001061
  16 H     1.0000    0     1.008   -7.765302   -2.273862   -1.731599
  17 H     1.0000    0     1.008   -9.157727    0.263792    0.053540
  18 H     1.0000    0     1.008   -7.726322   -2.360557    1.674369
  19 H     1.0000    0     1.008    7.657637    2.579027   -0.000374
[...]
     19       0.029297  -0.000021   0.000420   0.005038  -0.000129  -0.001292
     20      -0.000018  -0.000000   0.000001  -0.000008   0.000000   0.000002
     21      -0.006088  -0.000020   0.057316   0.001139  -0.000143  -0.000198
     22       0.010527   0.000040  -0.064905  -0.001367   0.000040  -0.000826
     23       0.000004  -0.000000  -0.000050  -0.000001   0.000000   0.000000
     24       0.001416  -0.000018   0.002602   0.000813   0.000009  -0.000532
     25      -0.000449  -0.000004   0.003676  -0.000499   0.000039   0.002761
     26      -0.000001  -0.000000  -0.000004  -0.000001   0.000000  -0.000000
     27       0.000249   0.000083  -0.000067   0.000677  -0.001486   0.000127
     28       0.000116  -0.002149   0.000204  -0.001082  -0.000445  -0.000193
     29      -0.000001  -0.000021  -0.000001   0.000001   0.000002   0.000001
     30      -0.000264   0.053269  -0.000008   0.000058   0.000009  -0.000009
     31       0.000238  -0.075733  -0.000002  -0.000094  -0.000111  -0.000010
     32       0.000019  -0.002063   0.000002  -0.000006   0.000013  -0.000001
     33      -0.009475  -0.001195  -0.011561   0.645512   0.001222  -0.000581
     34       0.008809   0.001923   0.013001  -0.756022  -0.002093   0.000037
     35       0.000008   0.000007   0.000011  -0.000584  -0.000001   0.000001
     36       0.288660   0.001396   0.054856  -0.002632  -0.003774   0.000338
     37       0.871443   0.004400   0.156485  -0.006592  -0.002928  -0.000300
     38      -0.000573  -0.000003  -0.000106   0.000003   0.000003  -0.000001
     39       0.007298  -0.002899   0.000944   0.000520   0.193457   0.000228
     40       0.002700  -0.000121   0.000927  -0.002109   0.978381   0.001485
     41      -0.000007  -0.000003  -0.000001   0.000001  -0.000449  -0.000001
     42      -0.110539   0.000214  -0.000529  -0.021240  -0.000296   0.005099
     43      -0.334045   0.000481  -0.003785  -0.056030   0.000114   0.006420
     44       0.000205  -0.000001   0.000001   0.000038   0.000001  -0.000007
     45       0.104107   0.000346  -0.645359  -0.012015   0.000139  -0.000543
     46      -0.121909  -0.000397   0.740190   0.013855  -0.000252  -0.000255
     47      -0.000089  -0.000002   0.000560   0.000010  -0.000002   0.000001
     48       0.000083   0.029836   0.000037   0.000275  -0.000069  -0.000067
     49      -0.000059   0.134013   0.000055   0.000631   0.000841  -0.000026
     50      -0.000106   0.214809   0.000089   0.000540   0.000270  -0.000019
     51       0.003396  -0.681794   0.000356  -0.001715  -0.000518  -0.000086
     52      -0.002894   0.625181  -0.000204   0.001224   0.000109   0.000028
     53      -0.000117   0.024673  -0.000010   0.000056   0.000002   0.000005
     54       0.000091   0.025774   0.000030   0.000294  -0.000135  -0.000060
     55       0.000007   0.152822   0.000068   0.000688   0.001105  -0.000026
     56       0.000007  -0.214633  -0.000097  -0.000532  -0.000405   0.000020
     57      -0.003116   0.000009  -0.002007  -0.000597   0.000289  -0.188992
     58      -0.003167   0.000069   0.000630  -0.000859   0.001500  -0.979975
     59       0.000005  -0.000000   0.000002   0.000001  -0.000001   0.000533


-----------
IR SPECTRUM
-----------

 Mode   freq       eps      Int      T**2         TX        TY        TZ
       cm**-1   L/(mol*cm) km/mol    a.u.
----------------------------------------------------------------------------
  7:     60.30   0.000495    2.50  0.002561  (-0.000136  0.000089 -0.050601)
  8:     75.19   0.001209    6.11  0.005016  (-0.000138  0.000112  0.070825)
  9:    150.74   0.001666    8.42  0.003449  (-0.058545  0.004656  0.000008)
 10:    175.42   0.000041    0.21  0.000073  ( 0.000204  0.000046 -0.008540)
 11:    309.03   0.000022    0.11  0.000022  (-0.001486  0.004482 -0.000008)
 12:    311.69   0.000117    0.59  0.000117  (-0.005909 -0.009081  0.000093)
 13:    369.04   0.001568    7.92  0.001326  (-0.000037 -0.000024  0.036412)
 14:    383.64   0.018420   93.09  0.014983  (-0.000182 -0.000044 -0.122405)
 15:    413.43   0.000077    0.39  0.000058  ( 0.000227  0.000040  0.007603)
 16:    416.18   0.001500    7.58  0.001125  ( 0.032848  0.006781 -0.000106)
 17:    493.91   0.004087   20.66  0.002582  ( 0.050809  0.000880 -0.000072)
 18:    518.68   0.004615   23.32  0.002777  (-0.000092  0.000022 -0.052693)
 19:    548.05   0.004326   21.86  0.002463  (-0.000287 -0.000141  0.049631)
 20:    598.97   0.003836   19.39  0.001999  ( 0.000332  0.000090  0.044704)
 21:    619.76   0.000058    0.29  0.000029  ( 0.000838  0.005255 -0.000826)
 22:    641.88   0.000016    0.08  0.000008  (-0.000450  0.002716 -0.000246)
 23:    711.50   0.000086    0.43  0.000038  ( 0.000051  0.000011  0.006131)
 24:    782.52   0.001581    7.99  0.000630  ( 0.024827  0.003742 -0.000222)
 25:    789.44   0.000038    0.19  0.000015  (-0.000096  0.000002 -0.003897)
 26:    819.24   0.009142   46.20  0.003482  ( 0.000108  0.000012  0.059011)
 27:    848.64   0.002255   11.39  0.000829  ( 0.028542  0.003796  0.000041)
 28:    918.22   0.000000    0.00  0.000000  (-0.000007  0.000008 -0.000127)
 29:    946.34   0.001410    7.13  0.000465  ( 0.021560 -0.000163  0.000255)
 30:    954.84   0.000289    1.46  0.000094  ( 0.000139 -0.000055 -0.009711)
 31:    956.80   0.004613   23.31  0.001505  ( 0.038595 -0.003875  0.000177)
 32:    986.33   0.000737    3.73  0.000233  (-0.001428 -0.000368 -0.015204)
 33:    988.39   0.000181    0.91  0.000057  (-0.007520  0.000408 -0.000523)
 34:   1082.07   0.006727   34.00  0.001940  (-0.026481 -0.035198  0.000015)
 35:   1137.00   0.001762    8.90  0.000484  ( 0.021202  0.005833 -0.000024)
 36:   1156.85   0.033026  166.90  0.008909  ( 0.093987  0.008668 -0.000096)
 37:   1210.93   0.012094   61.12  0.003117  (-0.055782  0.002216 -0.000177)
 38:   1235.98   0.008858   44.77  0.002237  ( 0.044498  0.016017  0.000015)
 39:   1268.58   0.028068  141.84  0.006905  ( 0.082892 -0.005781 -0.000061)
 40:   1305.99   0.000756    3.82  0.000181  ( 0.009683  0.009317 -0.000028)
 41:   1310.66   0.008034   40.60  0.001913  (-0.040727 -0.015938 -0.000422)
 42:   1382.62   0.007086   35.81  0.001599  ( 0.023059 -0.032673  0.000283)
 43:   1388.74   0.001611    8.14  0.000362  ( 0.016356 -0.009717 -0.000375)
 44:   1403.62   0.001892    9.56  0.000421  (-0.000634 -0.000094  0.020498)
 45:   1425.18   0.003103   15.68  0.000679  (-0.025699  0.004349 -0.000017)
 46:   1505.66   0.010938   55.28  0.002267  ( 0.046061 -0.012057  0.000105)
 47:   1514.95   0.118722  599.97  0.024455  (-0.156330 -0.004029  0.000073)
 48:   1605.81   0.000321    1.62  0.000062  (-0.007459  0.002600 -0.000030)
 49:   1643.50   0.002597   13.13  0.000493  (-0.021352 -0.006103  0.000022)
 50:   1748.87   0.042645  215.51  0.007610  (-0.039782  0.077633  0.000175)
 51:   2975.06   0.000937    4.73  0.000098  (-0.005822 -0.008021 -0.000001)
 52:   3057.23   0.001175    5.94  0.000120  ( 0.000104  0.000661 -0.010932)
 53:   3091.24   0.005052   25.53  0.000510  (-0.016113 -0.015822  0.000020)
 54:   3094.64   0.000761    3.84  0.000077  (-0.005444 -0.006860  0.000011)
 55:   3118.76   0.000267    1.35  0.000027  ( 0.003346 -0.003937  0.000022)
 56:   3139.06   0.000653    3.30  0.000065  ( 0.006183 -0.005170 -0.000003)
 57:   3174.87   0.001760    8.89  0.000173  ( 0.012040 -0.005293 -0.000004)
 58:   3520.67   0.003158   15.96  0.000280  (-0.000005  0.016731 -0.000003)
 59:   3705.71   0.013024   65.82  0.001097  (-0.022825 -0.023996  0.000029)

* The epsilon (eps) is given for a Dirac delta lineshape.
** The dipole moment derivative (T) already includes vibrational overlap.

The first frequency considered to be a vibration is 7
The total number of vibrations considered is 53


--------------------------
THERMOCHEMISTRY AT 298.15K
--------------------------

Temperature         ...   298.15 K
Pressure            ...     1.00 atm
Total Mass          ...   151.17 AMU
Quasi RRHO          ...     True
Cut-Off Frequency   ...     1.00 cm^-1

Throughout the following assumptions are being made:
  (1) The electronic state is orbitally nondegenerate
  (2) There are no thermally accessible electronically excited states
  (3) Hindered rotations indicated by low frequency modes are not
      treated as such but are treated as vibrations and this may
      cause some error
  (4) All equations used are the standard statistical mechanics
      equations for an ideal gas
  (5) All vibrations are strictly harmonic

freq.      60.30  E(vib)   ...       0.51 
freq.      75.19  E(vib)   ...       0.49 
freq.     150.74  E(vib)   ...       0.40 
freq.     175.42  E(vib)   ...       0.38 
freq.     309.03  E(vib)   ...       0.26 
freq.     311.69  E(vib)   ...       0.25 
freq.     369.04  E(vib)   ...       0.21 
freq.     383.64  E(vib)   ...       0.20 
freq.     413.43  E(vib)   ...       0.19 
freq.     416.18  E(vib)   ...       0.18 
freq.     493.91  E(vib)   ...       0.14 
freq.     518.68  E(vib)   ...       0.13 
freq.     548.05  E(vib)   ...       0.12 
freq.     598.97  E(vib)   ...       0.10 
freq.     619.76  E(vib)   ...       0.09 
freq.     641.88  E(vib)   ...       0.09 
freq.     711.50  E(vib)   ...       0.07 
freq.     782.52  E(vib)   ...       0.05 
freq.     789.44  E(vib)   ...       0.05 
freq.     819.24  E(vib)   ...       0.05 
freq.     848.64  E(vib)   ...       0.04 
freq.     918.22  E(vib)   ...       0.03 
freq.     946.34  E(vib)   ...       0.03 
freq.     954.84  E(vib)   ...       0.03 
freq.     956.80  E(vib)   ...       0.03 
freq.     986.33  E(vib)   ...       0.02 
freq.     988.39  E(vib)   ...       0.02 
freq.    1082.07  E(vib)   ...       0.02 
freq.    1137.00  E(vib)   ...       0.01 
freq.    1156.85  E(vib)   ...       0.01 
freq.    1210.93  E(vib)   ...       0.01 
freq.    1235.98  E(vib)   ...       0.01 
freq.    1268.58  E(vib)   ...       0.01 
freq.    1305.99  E(vib)   ...       0.01 
freq.    1310.66  E(vib)   ...       0.01 
freq.    1382.62  E(vib)   ...       0.01 
freq.    1388.74  E(vib)   ...       0.00 
freq.    1403.62  E(vib)   ...       0.00 
freq.    1425.18  E(vib)   ...       0.00 
freq.    1505.66  E(vib)   ...       0.00 
freq.    1514.95  E(vib)   ...       0.00 
freq.    1605.81  E(vib)   ...       0.00 
freq.    1643.50  E(vib)   ...       0.00 
freq.    1748.87  E(vib)   ...       0.00 
freq.    2975.06  E(vib)   ...       0.00 
freq.    3057.23  E(vib)   ...       0.00 
freq.    3091.24  E(vib)   ...       0.00 
freq.    3094.64  E(vib)   ...       0.00 
freq.    3118.76  E(vib)   ...       0.00 
freq.    3139.06  E(vib)   ...       0.00 
freq.    3174.87  E(vib)   ...       0.00 
freq.    3520.67  E(vib)   ...       0.00 
freq.    3705.71  E(vib)   ...       0.00 

------------
INNER ENERGY
------------

The inner energy is: U= E(el) + E(ZPE) + E(vib) + E(rot) + E(trans)
    E(el)   - is the total energy from the electronic structure calculation
              = E(kin-el) + E(nuc-el) + E(el-el) + E(nuc-nuc)
    E(ZPE)  - the the zero temperature vibrational energy from the frequency calculation
    E(vib)  - the the finite temperature correction to E(ZPE) due to population
              of excited vibrational states
    E(rot)  - is the rotational thermal energy
    E(trans)- is the translational thermal energy

Summary of contributions to the inner energy U:
Electronic energy                ...   -514.50718987 Eh
Zero point energy                ...      0.15489819 Eh      97.20 kcal/mol
Thermal vibrational correction   ...      0.00684141 Eh       4.29 kcal/mol
Thermal rotational correction    ...      0.00141627 Eh       0.89 kcal/mol
Thermal translational correction ...      0.00141627 Eh       0.89 kcal/mol
-----------------------------------------------------------------------
Total thermal energy                   -514.34261773 Eh


Summary of corrections to the electronic energy:
(perhaps to be used in another calculation)
Total thermal correction                  0.00967395 Eh       6.07 kcal/mol
Non-thermal (ZPE) correction              0.15489819 Eh      97.20 kcal/mol
-----------------------------------------------------------------------
Total correction                          0.16457214 Eh     103.27 kcal/mol


--------
ENTHALPY
--------

The enthalpy is H = U + kB*T
                kB is Boltzmann's constant
Total thermal energy              ...   -514.34261773 Eh 
Thermal Enthalpy correction       ...      0.00094421 Eh       0.59 kcal/mol
-----------------------------------------------------------------------
Total Enthalpy                    ...   -514.34167352 Eh


Note: Only C1 symmetry has been detected, increase convergence thresholds 
      if your molecule has a higher symmetry. Symmetry factor of 1.0 is   
      used for the rotational entropy correction. 
 

Note: Rotational entropy computed according to Herzberg 
Infrared and Raman Spectra, Chapter V,1, Van Nostrand Reinhold, 1945 
Point Group:  C1, Symmetry Number:   1  
Rotational constants in cm-1:     0.118303     0.017995     0.015666 

Vibrational entropy computed according to the QRRHO of S. Grimme
Chem.Eur.J. 2012 18 9955 using a reference frequency of 100.0 cm-1


-------
ENTROPY
-------

The entropy contributions are T*S = T*(S(el)+S(vib)+S(rot)+S(trans))
     S(el)   - electronic entropy
     S(vib)  - vibrational entropy
     S(rot)  - rotational entropy
     S(trans)- translational entropy
The entropies will be listed as multiplied by the temperature to get
units of energy

Electronic entropy                ...      0.00000000 Eh      0.00 kcal/mol
Vibrational entropy               ...      0.01130374 Eh      7.09 kcal/mol
Rotational entropy                ...      0.01437731 Eh      9.02 kcal/mol
Translational entropy             ...      0.01945645 Eh     12.21 kcal/mol
-----------------------------------------------------------------------
Final entropy term                ...      0.04513750 Eh     28.32 kcal/mol

In case the symmetry of your molecule has not been determined correctly
or in case you have a reason to use a different symmetry number we print 
out the resulting rotational entropy values for sn=1,12:

 non-linear molecules -----------------------------------
|  sn= 1 | S(rot)=       0.01437731 Eh      9.02 kcal/mol|
|  sn= 2 | S(rot)=       0.01372285 Eh      8.61 kcal/mol|
|  sn= 3 | S(rot)=       0.01334002 Eh      8.37 kcal/mol|
|  sn= 4 | S(rot)=       0.01306840 Eh      8.20 kcal/mol|
|  sn= 5 | S(rot)=       0.01285771 Eh      8.07 kcal/mol|
|  sn= 6 | S(rot)=       0.01268556 Eh      7.96 kcal/mol|
|  sn= 7 | S(rot)=       0.01254002 Eh      7.87 kcal/mol|
|  sn= 8 | S(rot)=       0.01241394 Eh      7.79 kcal/mol|
|  sn= 9 | S(rot)=       0.01230273 Eh      7.72 kcal/mol|
|  sn=10 | S(rot)=       0.01220325 Eh      7.66 kcal/mol|
|  sn=11 | S(rot)=       0.01211326 Eh      7.60 kcal/mol|
|  sn=12 | S(rot)=       0.01203111 Eh      7.55 kcal/mol|
 linear molecules ---------------------------------------
|  Dinfh | S(rot)=       0.00925005 Eh      5.80 kcal/mol|
|  Cinfv | S(rot)=       0.00990451 Eh      6.22 kcal/mol|
 --------------------------------------------------------


-------------------
GIBBS FREE ENERGY
-------------------

The Gibbs free energy is G = H - T*S

Total enthalpy                    ...   -514.34167352 Eh 
Total entropy correction          ...     -0.04513750 Eh    -28.32 kcal/mol
-----------------------------------------------------------------------
Final Gibbs free energy         ...   -514.38681102 Eh

For completeness - the Gibbs free energy minus the electronic energy
G-E(el)                           ...      0.12037885 Eh     75.54 kcal/mol


Maximum memory used throughout the entire PROP-calculation: 36.7 MB

--------------------------------
SUGGESTED CITATIONS FOR THIS RUN
--------------------------------

Below you find a list of papers that are relevant to this ORCA run
We neither can nor want to force you to cite these papers, but we appreciate if you do
You receive ORCA, which is the product of decades of hard work by many enthusiastic individuals, for free
The only thing we kindly ask in return is that you cite our papers,
We deeply appreciate it, if you show your appreciation for ORCA by not just citing the generic ORCA reference.

Please note that relegating all ORCA citations to the supporting information does *not* help us.
SI sections are not indexed - citations you put there will not count into any citation statistics
But we need these citations in order to attract the funding resources that allow us to do what we are doing

Therefore, if you are a happy ORCA user, please consider citing a few of the papers listed below in the main body of your paper

In addition to the list printed below, the program has created the file Acetaminophen-PBE-GeoOpt-1.bibtex that contains the list in bibtex format
You can import this file easily into all common literature databanks and citation aid programs


List of essential papers. We consider these as the minimum necessary citations

  1. Neese,F.
     Software update: the ORCA program system, version 5.0
     WIRES Comput. Molec. Sci., 2022 12(1)e1606
     doi.org/10.1002/wcms.1606

List of papers to cite with high priority. The work reported in these papers was absolutely
necessary for this run to complete.
Our perspective: the developers of density functionals and basis sets usually get cited in chemistry papers
Good! But without the algorithms to do something with them, the functionals or basis sets would not do anything.
Hence, in our opinion, the algorithm design and method developments papers are equally worthy of getting cited

  1. Neese,F.
     An improvement of the resolution of the identity approximation for the formation of the Coulomb matrix
     J. Comp. Chem., 2003 24(14)1740-1747
     doi.org/10.1002/jcc.10318
  2. Bykov,D.; Petrenko,T.; Izsak,R.; Kossmann,S.; Becker,U.; Valeev,E.; Neese,F.
     Efficient implementation of the analytic second derivatives of Hartree-Fock and hybrid DFT energies: a detailed analysis of different approximations
     Molec. Phys., 2015 113 1961-1977
     doi.org/10.1080/00268976.2015.1025114
  3. Neese,F.
     The SHARK Integral Generation and Digestion System
     J. Comp. Chem., 2022  1-16
     doi.org/10.1002/jcc.26942

List of suggested additional citations. These are papers that are important in the 'surrounding' of 
of this run, or papers that preceded the highly important papers. If you like your results we are grateful for a citation.

  1. Neese,F.
     The ORCA program system
     WIRES Comput. Molec. Sci., 2012 2(1)73-78
     doi.org/10.1002/wcms.81
  2. Neese,F.
     Software update: the ORCA program system, version 4.0
     WIRES Comput. Molec. Sci., 2018 8(1)1-6
     doi.org/10.1002/wcms.1327
  3. Neese,F.; Wennmohs,F.; Becker,U.; Riplinger,C.
     The ORCA quantum chemistry program package
     J. Chem. Phys., 2020 152 Art. No. L224108
     doi.org/10.1063/5.0004608

List of optional additional citations

  1. Neese,F.
     Approximate second-order SCF convergence for spin unrestricted wavefunctions
     Chem. Phys. Lett., 2000 325(1-3)93-98
     doi.org/10.1016/s0009-2614(00)00662-x

Timings for individual modules:

Sum of individual times          ...      549.215 sec (=   9.154 min)
Startup calculation              ...       25.950 sec (=   0.432 min)   4.7 %
SCF iterations                   ...      372.111 sec (=   6.202 min)  67.8 %
Property integrals               ...       42.648 sec (=   0.711 min)   7.8 %
SCF Response                     ...       48.988 sec (=   0.816 min)   8.9 %
Property calculations            ...       18.844 sec (=   0.314 min)   3.4 %
SCF Gradient evaluation          ...       40.239 sec (=   0.671 min)   7.3 %
Geometry relaxation              ...        0.436 sec (=   0.007 min)   0.1 %
                             ****ORCA TERMINATED NORMALLY****
TOTAL RUN TIME: 0 days 0 hours 9 minutes 21 seconds 842 msec
