
                                 *****************
                                 * O   R   C   A *
                                 *****************

                                            #,                                       
                                            ###                                      
                                            ####                                     
                                            #####                                    
                                            ######                                   
                                           ########,                                 
                                     ,,################,,,,,                         
                               ,,#################################,,                 
                          ,,##########################################,,             
                       ,#########################################, ''#####,          
                    ,#############################################,,   '####,        
                  ,##################################################,,,,####,       
                ,###########''''           ''''###############################       
              ,#####''   ,,,,##########,,,,          '''####'''          '####       
            ,##' ,,,,###########################,,,                        '##       
           ' ,,###''''                  '''############,,,                           
         ,,##''                                '''############,,,,        ,,,,,,###''
      ,#''                                            '''#######################'''  
     '                                                          ''''####''''         
             ,#######,   #######,   ,#######,      ##                                
            ,#'     '#,  ##    ##  ,#'     '#,    #''#        ,####,   ,####,        
            ##       ##  ##   ,#'  ##            #'  '#       #'       #'  '#        
            ##       ##  #######   ##           ,######,      #####,   #    #        
            '#,     ,#'  ##    ##  '#,     ,#' ,#      #,     #,   #   #,  ,#        
             '#######'   ##     ##  '#######'  #'      '#     '####' # '####'        



                #########################################################
                #                        -***-                          #
                #          Department of theory and spectroscopy        #
                #                                                       #
                #                      Frank Neese                      #
                #                                                       #
                #     Directorship, Architecture, Infrastructure        #
                #                    SHARK, DRIVERS                     #
                #        Core code/Algorithms in most modules           #
                #                                                       #
                #        Max Planck Institute fuer Kohlenforschung      #
                #                Kaiser Wilhelm Platz 1                 #
                #                 D-45470 Muelheim/Ruhr                 #
                #                      Germany                          #
                #                                                       #
                #                  All rights reserved                  #
                #                        -***-                          #
                #########################################################


                         Program Version 6.0.0  -   RELEASE  -


 With contributions from (in alphabetic order):
   Daniel Aravena         : Magnetic Suceptibility
   Michael Atanasov       : Ab Initio Ligand Field Theory (pilot matlab implementation)
   Alexander A. Auer      : GIAO ZORA, VPT2 properties, NMR spectrum
   Ute Becker             : All parallelization in ORCA, NUMFREQ, NUMCALC
   Giovanni Bistoni       : ED, misc. LED, open-shell LED, HFLD
   Martin Brehm           : Molecular dynamics
   Dmytro Bykov           : pre 5.0 version of the SCF Hessian
   Marcos Casanova-Páez   : Triplet and SCS-CIS(D). UHF-(DLPNO)-IP/EA/STEOM-CCSD. UHF-CVS-IP/STEOM-CCSD
   Vijay G. Chilkuri      : MRCI spin determinant printing, contributions to CSF-ICE
   Pauline Colinet        : FMM embedding
   Dipayan Datta          : RHF DLPNO-CCSD density
   Achintya Kumar Dutta   : EOM-CC, STEOM-CC
   Nicolas Foglia         : Exact transition moments, OPA infrastructure, MCD improvements
   Dmitry Ganyushin       : Spin-Orbit,Spin-Spin,Magnetic field MRCI
   Miquel Garcia          : C-PCM and meta-GGA Hessian, CCSD/C-PCM, Gaussian charge scheme
   Tiago L. C. Gouveia    : GS-ROHF, GS-ROCIS
   Yang Guo               : DLPNO-NEVPT2, F12-NEVPT2, CIM, IAO-localization
   Andreas Hansen         : Spin unrestricted coupled pair/coupled cluster methods
   Ingolf Harden          : AUTO-CI MPn and infrastructure 
   Benjamin Helmich-Paris : MC-RPA, TRAH-(SCF,CASSCF), AVAS, COSX integrals, SCF dyn. polar.
   Lee Huntington         : MR-EOM, pCC
   Robert Izsak           : Overlap fitted RIJCOSX, COSX-SCS-MP3, EOM
   Riya Kayal             : Wick's Theorem for AUTO-CI, AUTO-CI UHF-CCSDT
   Emily Kempfer          : AUTO-CI, RHF CISDT and CCSDT
   Christian Kollmar      : KDIIS, OOCD, Brueckner-CCSD(T), CCSD density, CASPT2, CASPT2-K, improved NEVPT2
   Axel Koslowski         : Symmetry handling
   Simone Kossmann        : Meta GGA functionals, TD-DFT gradient, OOMP2, (MP2 Hessian; deprecated post 5.0)
   Lucas Lang             : DCDCAS
   Marvin Lechner         : AUTO-CI (C++ implementation), FIC-MRCC
   Spencer Leger          : CASSCF response
   Dagmar Lenk            : GEPOL surface, SMD, ORCA-2-JSON
   Dimitrios Liakos       : Extrapolation schemes; Compound Job, initial MDCI parallelization
   Dimitrios Manganas     : Further ROCIS development; embedding schemes. LFT, Crystal Embedding
   Dimitrios Pantazis     : SARC Basis sets
   Anastasios Papadopoulos: AUTO-CI, single reference methods and gradients
   Taras Petrenko         : pre 6.0 DFT Hessian and TD-DFT gradient, (ASA, deprecated), ECA, 1-Electron XAS/XES, NRVS
   Peter Pinski           : DLPNO-MP2, DLPNO-MP2 Gradient
   Christoph Reimann      : Effective Core Potentials
   Marius Retegan         : Local ZFS, SOC
   Christoph Riplinger    : Optimizer, TS searches, QM/MM, DLPNO-CCSD(T), (RO)-DLPNO pert. Triples
   Michael Roemelt        : Original ROCIS implementation
   Masaaki Saitow         : Open-shell DLPNO-CCSD energy and density
   Barbara Sandhoefer     : DKH picture change effects
   Kantharuban Sivalingam : CASSCF convergence/infrastructure, NEVPT2 and variants, FIC-MRCI
   Bernardo de Souza      : ESD, SOC TD-DFT
   Georgi Stoychev        : AutoAux, RI-MP2 NMR, DLPNO-MP2 response, X2C
   Van Anh Tran           : RI-MP2 g-tensors
   Willem Van den Heuvel  : Paramagnetic NMR
   Zikuan Wang            : NOTCH, Electric field optimization 
   Frank Wennmohs         : Technical directorship and infrastructure
   Hang Xu                : AUTO-CI-Response properties 


 We gratefully acknowledge several colleagues who have allowed us to
 interface, adapt or use parts of their codes:
   Stefan Grimme, W. Hujo, H. Kruse, P. Pracht,  : VdW corrections, initial TS optimization,
                  C. Bannwarth, S. Ehlert,         DFT functionals, gCP, sTDA/sTD-DF
                  L. Wittmann, M. Mueller
   Ed Valeev, F. Pavosevic, A. Kumar             : LibInt (2-el integral package), F12 methods
   Garnet Chan, S. Sharma, J. Yang, R. Olivares  : DMRG
   Ulf Ekstrom                                   : XCFun DFT Library
   Mihaly Kallay                                 : mrcc  (arbitrary order and MRCC methods)
   Frank Weinhold                                : gennbo (NPA and NBO analysis)
   Simon Mueller                                 : openCOSMO-RS
   Christopher J. Cramer and Donald G. Truhlar   : smd solvation model
   Lars Goerigk                                  : TD-DFT with DH, B97 family of functionals
   V. Asgeirsson, H. Jonsson                     : NEB implementation
   FAccTs GmbH                                   : IRC, NEB, NEB-TS, DLPNO-Multilevel, CI-OPT
                                                   MM, QMMM, 2- and 3-layer-ONIOM, Crystal-QMMM,
                                                   LR-CPCM, SF, NACMEs, symmetry and pop. for TD-DFT,
                                                   nearIR, NL-DFT gradient (VV10), updates on ESD,
                                                   ML-optimized integration grids, MBIS, APM,
                                                   GOAT, DOCKER, SOLVATOR, interface openCOSMO-RS
   S Lehtola, MJT Oliveira, MAL Marques          : LibXC Library
   Liviu Ungur et al                             : ANISO software


 Your calculation uses the libint2 library for the computation of 2-el integrals
 For citations please refer to: http://libint.valeyev.net

 Your ORCA version has been built with support for libXC version: 6.2.2
 For citations please refer to: https://libxc.gitlab.io

 This ORCA versions uses:
   CBLAS   interface :  Fast vector & matrix operations
   LAPACKE interface :  Fast linear algebra routines
   SCALAPACK package :  Parallel linear algebra routines
   Shared memory     :  Shared parallel matrices
   BLAS/LAPACK       :  OpenBLAS 0.3.27  USE64BITINT DYNAMIC_ARCH NO_AFFINITY Haswell SINGLE_THREADED
        Core in use  :  Haswell
   Copyright (c) 2011-2014, The OpenBLAS Project


Warning: RI is on but no J-basis has been assigned. Assigning Def2/J (nothing to worry about!)
================================================================================

----- Orbital basis set information -----
Your calculation utilizes the basis: def2-SVP
   F. Weigend and R. Ahlrichs, Phys. Chem. Chem. Phys. 7, 3297 (2005).

----- AuxJ basis set information -----
Your calculation utilizes the auxiliary basis: def2/J
   F. Weigend, Phys. Chem. Chem. Phys. 8, 1057 (2006).

================================================================================
                                        WARNINGS
                       Please study these warnings very carefully!
================================================================================


WARNING: Geometry Optimization
  ===> : Switching off AutoStart
         For restart on a previous wavefunction, please use MOREAD

================================================================================
                                       INPUT FILE
================================================================================
NAME = Propane-GeoOpt-1.inp
|  1> ! B3LYP DEF2-SVP OPT PAL4 FREQ
|  2> * xyz 0 1
|  3> C 1.264500  0.382908  0.067366
|  4> C 2.758670  0.103688  0.198932
|  5> H 0.902185  0.964138  0.942048
|  6> H 1.059540  0.955630 -0.862236
|  7> H 0.709134 -0.577599  0.023445
|  8> C 3.560120  1.400360  0.263291
|  9> H 4.641110  1.165080  0.358283
| 10> H 3.405170  1.995950 -0.661604
| 11> H 3.248250  2.003280  1.142720
| 12> H 2.940710 -0.484988  1.123850
| 13> H 3.097590 -0.492783 -0.675428
| 14> **                         ****END OF INPUT****
================================================================================

                       *****************************
                       * Geometry Optimization Run *
                       *****************************

Geometry optimization settings:
Update method            Update   .... BFGS
Choice of coordinates    CoordSys .... (2022) Redundant Internals
Initial Hessian          InHess   .... Almloef's Model
Max. no of cycles        MaxIter  .... 50

Convergence Tolerances:
Energy Change            TolE     ....  5.0000e-06 Eh
Max. Gradient            TolMAXG  ....  3.0000e-04 Eh/bohr
RMS Gradient             TolRMSG  ....  1.0000e-04 Eh/bohr
Max. Displacement        TolMAXD  ....  4.0000e-03 bohr
RMS Displacement         TolRMSD  ....  2.0000e-03 bohr
Strict Convergence                .... False

------------------------------------------------------------------------------
                        ORCA OPTIMIZATION COORDINATE SETUP
------------------------------------------------------------------------------

The optimization will be done in redundant internal coordinates (2022)
Making redundant internal coordinates   ...  (2022 redundants) done
Evaluating the initial hessian          ...  (Almloef) done
Evaluating the coordinates              ...  done
Calculating the B-matrix                .... done
Calculating the G-matrix                .... done
Diagonalizing the G-matrix              .... done
The first mode is                       ....   13
The number of degrees of freedom        ....   27

    -----------------------------------------------------------------
                    Redundant Internal Coordinates


    -----------------------------------------------------------------
         Definition                    Initial Value    Approx d2E/dq
    -----------------------------------------------------------------
      1. B(C   1,C   0)                  1.5257         0.379497   
      2. B(H   2,C   0)                  1.1109         0.333448   
      3. B(H   3,C   0)                  1.1109         0.333442   
      4. B(H   4,C   0)                  1.1104         0.334130   
      5. B(C   5,C   1)                  1.5257         0.379494   
      6. B(H   6,C   5)                  1.1104         0.334138   
      7. B(H   7,C   5)                  1.1109         0.333449   
      8. B(H   8,C   5)                  1.1109         0.333447   
      9. B(H   9,C   1)                  1.1114         0.332907   
     10. B(H  10,C   1)                  1.1114         0.332908   
     11. A(C   1,C   0,H   3)          110.3150         0.321083   
     12. A(C   1,C   0,H   4)          109.5677         0.321191   
     13. A(H   3,C   0,H   4)          108.6977         0.284024   
     14. A(C   1,C   0,H   2)          110.3190         0.321083   
     15. A(H   2,C   0,H   4)          108.6991         0.284025   
     16. A(H   2,C   0,H   3)          109.2041         0.283934   
     17. A(C   0,C   1,C   5)          111.2559         0.365311   
     18. A(C   5,C   1,H   9)          109.2092         0.320998   
     19. A(C   0,C   1,H   9)          109.2149         0.320998   
     20. A(H   9,C   1,H  10)          108.6942         0.283791   
     21. A(C   5,C   1,H  10)          109.2155         0.320998   
     22. A(C   0,C   1,H  10)          109.2098         0.320998   
     23. A(H   7,C   5,H   8)          109.2042         0.283935   
     24. A(H   6,C   5,H   8)          108.6977         0.284026   
     25. A(C   1,C   5,H   8)          110.3142         0.321083   
     26. A(H   6,C   5,H   7)          108.6999         0.284026   
     27. A(C   1,C   5,H   7)          110.3191         0.321083   
     28. A(C   1,C   5,H   6)          109.5677         0.321192   
     29. D(H   9,C   1,C   0,H   3)   -178.9801         0.011480   
     30. D(H   9,C   1,C   0,H   2)     60.2820         0.011480   
     31. D(C   5,C   1,C   0,H   2)    -60.3444         0.011480   
     32. D(H   9,C   1,C   0,H   4)    -59.3512         0.011480   
     33. D(C   5,C   1,C   0,H   4)   -179.9776         0.011480   
     34. D(C   5,C   1,C   0,H   3)     60.3935         0.011480   
     35. D(H   6,C   5,C   1,C   0)   -179.9817         0.011480   
     36. D(H   7,C   5,C   1,H  10)     60.2800         0.011480   
     37. D(H   7,C   5,C   1,H   9)    179.0226         0.011480   
     38. D(H   7,C   5,C   1,C   0)    -60.3476         0.011480   
     39. D(H   6,C   5,C   1,H  10)    -59.3541         0.011480   
     40. D(H   6,C   5,C   1,H   9)     59.3885         0.011480   
    -----------------------------------------------------------------

Number of atoms                         .... 11
Number of degrees of freedom            .... 40


         *************************************************************
         *                GEOMETRY OPTIMIZATION CYCLE   1            *
         *************************************************************
---------------------------------
CARTESIAN COORDINATES (ANGSTROEM)
---------------------------------
  C      1.264500    0.382908    0.067366
  C      2.758670    0.103688    0.198932
  H      0.902185    0.964138    0.942048
  H      1.059540    0.955630   -0.862236
  H      0.709134   -0.577599    0.023445
  C      3.560120    1.400360    0.263291
  H      4.641110    1.165080    0.358283
  H      3.405170    1.995950   -0.661604
  H      3.248250    2.003280    1.142720
  H      2.940710   -0.484988    1.123850
  H      3.097590   -0.492783   -0.675428

----------------------------
CARTESIAN COORDINATES (A.U.)
----------------------------
  NO LB      ZA    FRAG     MASS         X           Y           Z
   0 C     6.0000    0    12.011    2.389559    0.723591    0.127303
   1 C     6.0000    0    12.011    5.213131    0.195942    0.375927
   2 H     1.0000    0     1.008    1.704883    1.821957    1.780213
   3 H     1.0000    0     1.008    2.002240    1.805879   -1.629390
   4 H     1.0000    0     1.008    1.340069   -1.091504    0.044305
   5 C     6.0000    0    12.011    6.727652    2.646297    0.497548
   6 H     1.0000    0     1.008    8.770427    2.201682    0.677057
   7 H     1.0000    0     1.008    6.434839    3.771799   -1.250250
   8 H     1.0000    0     1.008    6.138303    3.785651    2.159428
   9 H     1.0000    0     1.008    5.557137   -0.916494    2.123769
  10 H     1.0000    0     1.008    5.853597   -0.931225   -1.276374

--------------------------------
INTERNAL COORDINATES (ANGSTROEM)
--------------------------------
 C      0   0   0     0.000000000000     0.00000000     0.00000000
 C      1   0   0     1.525718653506     0.00000000     0.00000000
 H      1   2   0     1.110931624021   110.31901776     0.00000000
 H      1   2   3     1.110936077949   110.31502910   120.73786267
 H      1   2   3     1.110375677528   109.56774489   240.36679113
 C      2   1   3     1.525720308236   111.25588291   299.65560617
 H      6   2   1     1.110369100148   109.56766668   180.01828561
 H      6   2   1     1.110931011191   110.31908033   299.65239385
 H      6   2   1     1.110932396386   110.31420788    60.38981358
 H      2   1   3     1.111373610133   109.21488547    60.28201197
 H      2   1   3     1.111372948133   109.20981977   179.02467590

---------------------------
INTERNAL COORDINATES (A.U.)
---------------------------
 C      0   0   0     0.000000000000     0.00000000     0.00000000
 C      1   0   0     2.883190412541     0.00000000     0.00000000
 H      1   2   0     2.099356522911   110.31901776     0.00000000
 H      1   2   3     2.099364939616   110.31502910   120.73786267
 H      1   2   3     2.098305936295   109.56774489   240.36679113
 C      2   1   3     2.883193539529   111.25588291   299.65560617
 H      6   2   1     2.098293506849   109.56766668   180.01828561
 H      6   2   1     2.099355364830   110.31908033   299.65239385
 H      6   2   1     2.099357982471   110.31420788    60.38981358
 H      2   1   3     2.100191755619   109.21488547    60.28201197
 H      2   1   3     2.100190504619   109.20981977   179.02467590

---------------------
BASIS SET INFORMATION
---------------------
There are 2 groups of distinct atoms

 Group   1 Type C   : 7s4p1d contracted to 3s2p1d pattern {511/31/1}
 Group   2 Type H   : 4s1p contracted to 2s1p pattern {31/1}

Atom   0C    basis set group =>   1
Atom   1C    basis set group =>   1
Atom   2H    basis set group =>   2
Atom   3H    basis set group =>   2
Atom   4H    basis set group =>   2
Atom   5C    basis set group =>   1
Atom   6H    basis set group =>   2
Atom   7H    basis set group =>   2
Atom   8H    basis set group =>   2
Atom   9H    basis set group =>   2
Atom  10H    basis set group =>   2
---------------------------------
AUXILIARY/J BASIS SET INFORMATION
---------------------------------
There are 2 groups of distinct atoms

 Group   1 Type C   : 12s5p4d2f1g contracted to 6s4p3d1f1g pattern {711111/2111/211/2/1}
 Group   2 Type H   : 5s2p1d contracted to 3s1p1d pattern {311/2/1}

Atom   0C    basis set group =>   1
Atom   1C    basis set group =>   1
Atom   2H    basis set group =>   2
Atom   3H    basis set group =>   2
Atom   4H    basis set group =>   2
Atom   5C    basis set group =>   1
Atom   6H    basis set group =>   2
Atom   7H    basis set group =>   2
Atom   8H    basis set group =>   2
Atom   9H    basis set group =>   2
Atom  10H    basis set group =>   2


           ************************************************************
           *        Program running with 4 parallel MPI-processes     *
           *              working on a common directory               *
           ************************************************************
------------------------------------------------------------------------------
                             ORCA STARTUP CALCULATIONS
                           -- RI-GTO INTEGRALS CHOSEN --
------------------------------------------------------------------------------
------------------------------------------------------------------------------
                   ___                                                        
                  /   \      - P O W E R E D   B Y -                         
                 /     \                                                     
                 |  |  |   _    _      __       _____    __    __             
                 |  |  |  | |  | |    /  \     |  _  \  |  |  /  |          
                  \  \/   | |  | |   /    \    | | | |  |  | /  /          
                 / \  \   | |__| |  /  /\  \   | |_| |  |  |/  /          
                |  |  |   |  __  | /  /__\  \  |    /   |      \           
                |  |  |   | |  | | |   __   |  |    \   |  |\   \          
                \     /   | |  | | |  |  |  |  | |\  \  |  | \   \       
                 \___/    |_|  |_| |__|  |__|  |_| \__\ |__|  \__/        
                                                                              
                      - O R C A' S   B I G   F R I E N D -                    
                                      &                                       
                       - I N T E G R A L  F E E D E R -                       
                                                                              
 v1 FN, 2020, v2 2021, v3 2022-2024                                           
------------------------------------------------------------------------------


----------------------
SHARK INTEGRAL PACKAGE
----------------------

Number of atoms                             ...     11
Number of basis functions                   ...     82
Number of shells                            ...     42
Maximum angular momentum                    ...      2
Integral batch strategy                     ... SHARK/LIBINT Hybrid
RI-J (if used) integral strategy            ... SPLIT-RIJ (Revised 2003 algorithm where possible)
Printlevel                                  ...      1
Contraction scheme used                     ... SEGMENTED contraction
Prescreening option                         ... SCHWARTZ
   Thresh                                   ... 2.500e-11
   Tcut                                     ... 2.500e-12
   Tpresel                                  ... 2.500e-12 
Coulomb Range Separation                    ... NOT USED
Exchange Range Separation                   ... NOT USED
Multipole approximations                    ... NOT USED
Finite Nucleus Model                        ... NOT USED
CABS basis                                  ... NOT available
Auxiliary Coulomb fitting basis             ... AVAILABLE
   # of basis functions in Aux-J            ...    235
   # of shells in Aux-J                     ...     85
   Maximum angular momentum in Aux-J        ...      4
Auxiliary J/K fitting basis                 ... NOT available
Auxiliary Correlation fitting basis         ... NOT available
Auxiliary 'external' fitting basis          ... NOT available

Checking pre-screening integrals            ... done (  0.0 sec) Dimension = 42
Check shell pair data                       ... done (  0.0 sec)
Shell pair information
Shell pair cut-off parameter TPreSel        ...   2.5e-12
Total number of shell pairs                 ...       903
Shell pairs after pre-screening             ...       900
Total number of primitive shell pairs       ...      2989
Primitive shell pairs kept                  ...      2566
          la=0 lb=0:    324 shell pairs
          la=1 lb=0:    348 shell pairs
          la=1 lb=1:    105 shell pairs
          la=2 lb=0:     75 shell pairs
          la=2 lb=1:     42 shell pairs
          la=2 lb=2:      6 shell pairs

Calculating one electron integrals          ... done (  0.0 sec)
Calculating RI/J V-Matrix + Cholesky decomp.... done (  0.0 sec)
Calculating Nuclear repulsion               ... done (  0.0 sec) ENN=     82.292033487093 Eh

Diagonalization of the overlap matrix:
Smallest eigenvalue                        ... 2.884e-03
Time for diagonalization                   ...    0.001 sec
Threshold for overlap eigenvalues          ... 1.000e-07
Number of eigenvalues below threshold      ... 0
Time for construction of square roots      ...    0.004 sec
Total time needed                          ...    0.011 sec

-------------------
DFT GRID GENERATION
-------------------

General Integration Accuracy     IntAcc      ... 4.388
Radial Grid Type                 RadialGrid  ... OptM3 with GC (2021)
Angular Grid (max. ang.)         AngularGrid ... 4 (Lebedev-302)
Angular grid pruning method      GridPruning ... 4 (adaptive)
Weight generation scheme         WeightScheme... mBecke (2022)
Basis function cutoff            BFCut       ... 1.0000e-11
Integration weight cutoff        WCut        ... 1.0000e-14
Partially contracted basis set               ... off
Rotationally invariant grid construction     ... off
Angular grids for H and He will be reduced by one unit

Total number of grid points                  ...    44058
Total number of batches                      ...      694
Average number of points per batch           ...       63
Average number of grid points per atom       ...     4005

--------------------
COSX GRID GENERATION
--------------------

GRIDX 1
-------
General Integration Accuracy     IntAcc      ... 3.816
Radial Grid Type                 RadialGrid  ... OptM3 with GC (2021)
Angular Grid (max. ang.)         AngularGrid ... 1 (Lebedev-50)
Angular grid pruning method      GridPruning ... 4 (adaptive)
Weight generation scheme         WeightScheme... mBecke (2022)
Basis function cutoff            BFCut       ... 1.0000e-11
Integration weight cutoff        WCut        ... 1.0000e-14
Partially contracted basis set               ... on
Rotationally invariant grid construction     ... off
Angular grids for H and He will be reduced by one unit

Total number of grid points                  ...     5712
Total number of batches                      ...       52
Average number of points per batch           ...      109
Average number of grid points per atom       ...      519
UseSFitting                                  ... on

GRIDX 2
-------
General Integration Accuracy     IntAcc      ... 4.020
Radial Grid Type                 RadialGrid  ... OptM3 with GC (2021)
Angular Grid (max. ang.)         AngularGrid ... 2 (Lebedev-110)
Angular grid pruning method      GridPruning ... 4 (adaptive)
Weight generation scheme         WeightScheme... mBecke (2022)
Basis function cutoff            BFCut       ... 1.0000e-11
Integration weight cutoff        WCut        ... 1.0000e-14
Partially contracted basis set               ... on
Rotationally invariant grid construction     ... off
Angular grids for H and He will be reduced by one unit

Total number of grid points                  ...    11705
Total number of batches                      ...       97
Average number of points per batch           ...      120
Average number of grid points per atom       ...     1064
UseSFitting                                  ... on

GRIDX 3
-------
General Integration Accuracy     IntAcc      ... 4.338
Radial Grid Type                 RadialGrid  ... OptM3 with GC (2021)
Angular Grid (max. ang.)         AngularGrid ... 3 (Lebedev-194)
Angular grid pruning method      GridPruning ... 4 (adaptive)
Weight generation scheme         WeightScheme... mBecke (2022)
Basis function cutoff            BFCut       ... 1.0000e-11
Integration weight cutoff        WCut        ... 1.0000e-14
Partially contracted basis set               ... on
Rotationally invariant grid construction     ... off
Angular grids for H and He will be reduced by one unit

Total number of grid points                  ...    25589
Total number of batches                      ...      205
Average number of points per batch           ...      124
Average number of grid points per atom       ...     2326
UseSFitting                                  ... on
Initializing property integral containers    ... done (  0.0 sec)

SHARK setup successfully completed in   1.9 seconds

Maximum memory used throughout the entire STARTUP-calculation: 12.7 MB


           ************************************************************
           *        Program running with 4 parallel MPI-processes     *
           *              working on a common directory               *
           ************************************************************
-------------------------------------------------------------------------------
                                 ORCA GUESS
                   Start orbitals & Density for SCF / CASSCF
-------------------------------------------------------------------------------

------------
SCF SETTINGS
------------
Hamiltonian:
 Density Functional     Method          .... DFT(GTOs)
 Exchange Functional    Exchange        .... B88
   X-Alpha parameter    XAlpha          ....  0.666667
   Becke's b parameter  XBeta           ....  0.004200
 Correlation Functional Correlation     .... LYP
 LDA part of GGA corr.  LDAOpt          .... VWN-5
 Gradients option       PostSCFGGA      .... off
 Hybrid DFT is turned on
   Fraction HF Exchange ScalHFX         ....  0.200000
   Scaling of DF-GGA-X  ScalDFX         ....  0.720000
   Scaling of DF-GGA-C  ScalDFC         ....  0.810000
   Scaling of DF-LDA-C  ScalLDAC        ....  1.000000
   Perturbative correction              ....  0.000000
   NL short-range parameter             ....  4.800000
 RI-approximation to the Coulomb term is turned on
   Number of AuxJ basis functions       .... 235
   RIJ-COSX (HFX calculated with COS-X)).... on


General Settings:
 Integral files         IntName         .... Propane-GeoOpt-1
 Hartree-Fock type      HFTyp           .... RHF
 Total Charge           Charge          ....    0
 Multiplicity           Mult            ....    1
 Number of Electrons    NEL             ....   26
 Basis Dimension        Dim             ....   82
 Nuclear Repulsion      ENuc            ....     82.2920334871 Eh

Convergence Acceleration:
 AO-DIIS                CNVDIIS         .... on
   Start iteration      DIISMaxIt       ....    12
   Startup error        DIISStart       ....  0.200000
   # of expansion vecs  DIISMaxEq       ....     5
   Bias factor          DIISBfac        ....   1.050
   Max. coefficient     DIISMaxC        ....  10.000
 MO-DIIS                CNVKDIIS        .... off
 Trust-Rad. Augm. Hess. CNVTRAH         .... auto
   Auto Start mean grad. ratio tolernc. ....  1.125000
   Auto Start start iteration           ....    50
   Auto Start num. interpolation iter.  ....    10
   Max. Number of Micro iterations      ....    24
   Max. Number of Macro iterations      .... Maxiter - #DIIS iter
   Number of Davidson start vectors     ....     2
   Converg. threshold    (grad. norm)   ....   1.000e-05
   Grad. Scal. Fac. for Micro threshold ....   0.100
   Minimum threshold for Micro iter.    ....   1.000e-02
   NR start threshold (gradient norm)   ....   1.000e-04
   Initial trust radius                 ....   0.400
   Minimum AH scaling param. (alpha)    ....   1.000
   Maximum AH scaling param. (alpha)    .... 1000.000
   Quad. conv. algorithm                .... NR
   White noise on init. David. guess    .... on
   Maximum white noise                  ....   0.010
   Pseudo random numbers                .... off
   Inactive MOs                         .... canonical
   Orbital update algorithm             .... Taylor
   Preconditioner                       .... Diag
   Full preconditioner red. dimension   ....   250
 SOSCF                  CNVSOSCF        .... on
   Start iteration      SOSCFMaxIt      ....   150
   Startup grad/error   SOSCFStart      ....  0.003300
   Hessian update       SOSCFHessUp     .... L-BFGS
 Level Shifting         CNVShift        .... on
   Level shift para.    LevelShift      ....    0.2500
   Turn off err/grad.   ShiftErr        ....    0.0010
 Zerner damping         CNVZerner       .... off
 Static damping         CNVDamp         .... on
   Fraction old density DampFac         ....    0.7000
   Max. Damping (<1)    DampMax         ....    0.9800
   Min. Damping (>=0)   DampMin         ....    0.0000
   Turn off err/grad.   DampErr         ....    0.1000

SCF Procedure:
 Maximum # iterations   MaxIter         ....   125
 SCF integral mode      SCFMode         .... Direct
   Integral package                     .... SHARK and LIBINT hybrid scheme
 Reset frequency        DirectResetFreq ....    20
 Integral Threshold     Thresh          ....  2.500e-11 Eh
 Primitive CutOff       TCut            ....  2.500e-12 Eh

Convergence Tolerance:
 Convergence Check Mode ConvCheckMode   .... Total+1el-Energy
 Convergence forced     ConvForced      .... 0
 Energy Change          TolE            ....  1.000e-08 Eh
 1-El. energy change                    ....  1.000e-05 Eh
 Orbital Gradient       TolG            ....  1.000e-05
 Orbital Rotation angle TolX            ....  1.000e-05
 DIIS Error             TolErr          ....  5.000e-07

------------------------------
INITIAL GUESS: MODEL POTENTIAL
------------------------------
Loading Hartree-Fock densities                     ... done
Calculating cut-offs                               ... done
Initializing the effective Hamiltonian             ... done
Setting up the integral package (SHARK)            ... done
Starting the Coulomb interaction                   ... done (   0.0 sec)
Making the grid                                    ... done (   0.4 sec)
Mapping shells                                     ... done
Starting the XC term evaluation                    ... done (   0.0 sec)
  promolecular density results
     # of electrons  =     25.996994615
     EX              =    -17.767530511
     EC              =     -0.800352333
     EX+EC           =    -18.567882843
Transforming the Hamiltonian                       ... done (   0.0 sec)
Diagonalizing the Hamiltonian                      ... done (   0.0 sec)
Back transforming the eigenvectors                 ... done (   0.0 sec)
Now organizing SCF variables                       ... done
                      ------------------
                      INITIAL GUESS DONE (   0.4 sec)
                      ------------------
             **** ENERGY FILE WAS UPDATED (Propane-GeoOpt-1.en.tmp) ****
Finished Guess after   0.9 sec
Maximum memory used throughout the entire GUESS-calculation: 7.0 MB


           ************************************************************
           *        Program running with 4 parallel MPI-processes     *
           *              working on a common directory               *
           ************************************************************

-------------------------------------------------------------------------------------------
                                      ORCA LEAN-SCF
                              memory conserving SCF solver
-------------------------------------------------------------------------------------------

----------------------------------------D-I-I-S--------------------------------------------
Iteration    Energy (Eh)           Delta-E    RMSDP     MaxDP     DIISErr   Damp  Time(sec)
-------------------------------------------------------------------------------------------
               ***  Starting incremental Fock matrix formation  ***
    1    -118.8255189320047975     0.00e+00  4.69e-03  7.78e-02  1.72e-01  0.700   1.4
    2    -118.8896807342170234    -6.42e-02  3.37e-03  4.75e-02  8.96e-02  0.700   1.4
                               ***Turning on AO-DIIS***
    3    -118.9152852648749672    -2.56e-02  1.36e-03  1.32e-02  3.33e-02  0.700   1.4
    4    -118.9298428498417195    -1.46e-02  2.23e-03  2.25e-02  1.55e-02  0.000   1.5
    5    -118.9615324674876717    -3.17e-02  4.23e-04  3.99e-03  6.86e-03  0.000   1.4
                              *** Initializing SOSCF ***
---------------------------------------S-O-S-C-F--------------------------------------
Iteration    Energy (Eh)           Delta-E    RMSDP     MaxDP     MaxGrad    Time(sec)
--------------------------------------------------------------------------------------
    6    -118.9617782470550651    -2.46e-04  1.66e-04  1.53e-03  1.83e-03     1.4
               *** Restarting incremental Fock matrix formation ***
    7    -118.9617793123934462    -1.07e-06  1.16e-04  1.03e-03  3.03e-04     1.4
    8    -118.9617796367518565    -3.24e-07  3.12e-05  6.14e-04  3.15e-04     1.5
    9    -118.9617812547873257    -1.62e-06  6.78e-06  5.52e-05  2.67e-05    -0.9
   10    -118.9617812618434129    -7.06e-09  2.13e-06  2.81e-05  1.62e-05     1.4
                 **** Energy Check signals convergence ****

               *****************************************************
               *                     SUCCESS                       *
               *           SCF CONVERGED AFTER  10 CYCLES          *
               *****************************************************

Recomputing exchange energy using gridx3       ... done (    0.271 sec)
Old exchange energy                            :     -3.664504194 Eh
New exchange energy                            :     -3.664484229 Eh
Exchange energy change after final integration :      0.000019964 Eh
Total energy after final integration           :   -118.961761297 Eh
             **** ENERGY FILE WAS UPDATED (Propane-GeoOpt-1.en.tmp) ****

----------------
TOTAL SCF ENERGY
----------------

Total Energy       :       -118.96176129745261 Eh           -3237.11410 eV

Components:
Nuclear Repulsion  :         82.29203348709294 Eh            2239.28007 eV
Electronic Energy  :       -201.25381474893635 Eh           -5476.39471 eV
One Electron Energy:       -321.08770637502499 Eh           -8737.24068 eV
Two Electron Energy:        119.83389162608866 Eh            3260.84597 eV

Virial components:
Potential Energy   :       -236.28892083467932 Eh           -6429.74842 eV
Kinetic Energy     :        117.32715953722671 Eh            3192.63432 eV
Virial Ratio       :          2.01393199806995

DFT components:
N(Alpha)           :       13.000003068172 electrons
N(Beta)            :       13.000003068172 electrons
N(Total)           :       26.000006136343 electrons
E(X)               :      -14.496491630023 Eh       
E(C)               :       -0.956133643869 Eh       
E(XC)              :      -15.452625273892 Eh       

---------------
SCF CONVERGENCE
---------------

  Last Energy change         ...    7.0561e-09  Tolerance :   1.0000e-08
  Last MAX-Density change    ...    2.8061e-05  Tolerance :   1.0000e-07
  Last RMS-Density change    ...    2.1253e-06  Tolerance :   5.0000e-09
  Last DIIS Error            ...    1.8316e-03  Tolerance :   5.0000e-07
  Last Orbital Gradient      ...    1.6210e-05  Tolerance :   1.0000e-05
  Last Orbital Rotation      ...    1.2902e-05  Tolerance :   1.0000e-05


----------------
ORBITAL ENERGIES
----------------

  NO   OCC          E(Eh)            E(eV) 
   0   2.0000     -10.178335      -276.9666 
   1   2.0000     -10.174211      -276.8544 
   2   2.0000     -10.174179      -276.8535 
   3   2.0000      -0.769199       -20.9310 
   4   2.0000      -0.664361       -18.0782 
   5   2.0000      -0.566847       -15.4247 
   6   2.0000      -0.454553       -12.3690 
   7   2.0000      -0.430062       -11.7026 
   8   2.0000      -0.393046       -10.6953 
   9   2.0000      -0.375551       -10.2193 
  10   2.0000      -0.331971        -9.0334 
  11   2.0000      -0.329196        -8.9579 
  12   2.0000      -0.325032        -8.8446 
  13   0.0000       0.057983         1.5778 
  14   0.0000       0.105926         2.8824 
  15   0.0000       0.106402         2.8953 
  16   0.0000       0.107164         2.9161 
  17   0.0000       0.137172         3.7326 
  18   0.0000       0.156583         4.2608 
  19   0.0000       0.160397         4.3646 
  20   0.0000       0.168634         4.5888 
  21   0.0000       0.215395         5.8612 
  22   0.0000       0.253593         6.9006 
  23   0.0000       0.405329        11.0296 
*Only the first 10 virtual orbitals were printed.

                    ********************************
                    * MULLIKEN POPULATION ANALYSIS *
                    ********************************

-----------------------
MULLIKEN ATOMIC CHARGES
-----------------------
   0 C :   -0.014872
   1 C :   -0.044049
   2 H :    0.010117
   3 H :    0.010102
   4 H :    0.011369
   5 C :   -0.015212
   6 H :    0.011373
   7 H :    0.010176
   8 H :    0.010193
   9 H :    0.005439
  10 H :    0.005365
Sum of atomic charges:   -0.0000000

--------------------------------
MULLIKEN REDUCED ORBITAL CHARGES
--------------------------------
  0 C s       :     3.024157  s :     3.024157
      pz      :     0.993572  p :     2.961824
      px      :     0.978685
      py      :     0.989566
      dz2     :     0.005490  d :     0.028892
      dxz     :     0.004482
      dyz     :     0.006553
      dx2y2   :     0.005303
      dxy     :     0.007065

  1 C s       :     3.047826  s :     3.047826
      pz      :     0.989439  p :     2.958435
      px      :     0.974823
      py      :     0.994173
      dz2     :     0.006034  d :     0.037787
      dxz     :     0.005020
      dyz     :     0.009747
      dx2y2   :     0.008558
      dxy     :     0.008428

  2 H s       :     0.967462  s :     0.967462
      pz      :     0.010183  p :     0.022421
      px      :     0.005058
      py      :     0.007180

  3 H s       :     0.967478  s :     0.967478
      pz      :     0.010966  p :     0.022421
      px      :     0.004345
      py      :     0.007110

  4 H s       :     0.966278  s :     0.966278
      pz      :     0.004736  p :     0.022353
      px      :     0.006376
      py      :     0.011241

  5 C s       :     3.024398  s :     3.024398
      pz      :     0.993776  p :     2.961918
      px      :     0.988659
      py      :     0.979482
      dz2     :     0.005411  d :     0.028896
      dxz     :     0.001682
      dyz     :     0.009440
      dx2y2   :     0.007340
      dxy     :     0.005023

  6 H s       :     0.966275  s :     0.966275
      pz      :     0.004788  p :     0.022352
      px      :     0.012987
      py      :     0.004577

  7 H s       :     0.967404  s :     0.967404
      pz      :     0.010845  p :     0.022420
      px      :     0.004713
      py      :     0.006861

  8 H s       :     0.967387  s :     0.967387
      pz      :     0.010311  p :     0.022420
      px      :     0.005181
      py      :     0.006928

  9 H s       :     0.973131  s :     0.973131
      pz      :     0.010674  p :     0.021430
      px      :     0.004115
      py      :     0.006641

 10 H s       :     0.973205  s :     0.973205
      pz      :     0.010005  p :     0.021431
      px      :     0.004715
      py      :     0.006710



                     *******************************
                     * LOEWDIN POPULATION ANALYSIS *
                     *******************************

----------------------
LOEWDIN ATOMIC CHARGES
----------------------
   0 C :   -0.059576
   1 C :   -0.044991
   2 H :    0.020424
   3 H :    0.020424
   4 H :    0.021873
   5 C :   -0.059620
   6 H :    0.021871
   7 H :    0.020443
   8 H :    0.020436
   9 H :    0.019369
  10 H :    0.019348

-------------------------------
LOEWDIN REDUCED ORBITAL CHARGES
-------------------------------
  0 C s       :     2.851474  s :     2.851474
      pz      :     1.056015  p :     3.136494
      px      :     1.027273
      py      :     1.053206
      dz2     :     0.014501  d :     0.071609
      dxz     :     0.009381
      dyz     :     0.016407
      dx2y2   :     0.014385
      dxy     :     0.016935

  1 C s       :     2.844790  s :     2.844790
      pz      :     1.050019  p :     3.110133
      px      :     1.023714
      py      :     1.036399
      dz2     :     0.015913  d :     0.090068
      dxz     :     0.010255
      dyz     :     0.023241
      dx2y2   :     0.020669
      dxy     :     0.019991

  2 H s       :     0.917434  s :     0.917434
      pz      :     0.028220  p :     0.062142
      px      :     0.014989
      py      :     0.018933

  3 H s       :     0.917435  s :     0.917435
      pz      :     0.030473  p :     0.062140
      px      :     0.012956
      py      :     0.018711

  4 H s       :     0.915877  s :     0.915877
      pz      :     0.011289  p :     0.062250
      px      :     0.019209
      py      :     0.031752

  5 C s       :     2.851469  s :     2.851469
      pz      :     1.056191  p :     3.136542
      px      :     1.044388
      py      :     1.035963
      dz2     :     0.014350  d :     0.071609
      dxz     :     0.003714
      dyz     :     0.022230
      dx2y2   :     0.017770
      dxy     :     0.013546

  6 H s       :     0.915879  s :     0.915879
      pz      :     0.011440  p :     0.062249
      px      :     0.037523
      py      :     0.013287

  7 H s       :     0.917415  s :     0.917415
      pz      :     0.030253  p :     0.062142
      px      :     0.012022
      py      :     0.019868

  8 H s       :     0.917421  s :     0.917421
      pz      :     0.028423  p :     0.062142
      px      :     0.013652
      py      :     0.020067

  9 H s       :     0.918565  s :     0.918565
      pz      :     0.029987  p :     0.062066
      px      :     0.012790
      py      :     0.019289

 10 H s       :     0.918588  s :     0.918588
      pz      :     0.027991  p :     0.062065
      px      :     0.014582
      py      :     0.019492



                      *****************************
                      * MAYER POPULATION ANALYSIS *
                      *****************************

  NA   - Mulliken gross atomic population
  ZA   - Total nuclear charge
  QA   - Mulliken gross atomic charge
  VA   - Mayer's total valence
  BVA  - Mayer's bonded valence
  FA   - Mayer's free valence

  ATOM       NA         ZA         QA         VA         BVA        FA
  0 C      6.0149     6.0000    -0.0149     4.0213     4.0213    -0.0000
  1 C      6.0440     6.0000    -0.0440     4.1467     4.1467     0.0000
  2 H      0.9899     1.0000     0.0101     0.9870     0.9870     0.0000
  3 H      0.9899     1.0000     0.0101     0.9870     0.9870     0.0000
  4 H      0.9886     1.0000     0.0114     0.9812     0.9812     0.0000
  5 C      6.0152     6.0000    -0.0152     4.0210     4.0210    -0.0000
  6 H      0.9886     1.0000     0.0114     0.9813     0.9813    -0.0000
  7 H      0.9898     1.0000     0.0102     0.9870     0.9870     0.0000
  8 H      0.9898     1.0000     0.0102     0.9870     0.9870     0.0000
  9 H      0.9946     1.0000     0.0054     0.9707     0.9707     0.0000
 10 H      0.9946     1.0000     0.0054     0.9707     0.9707    -0.0000

  Mayer bond orders larger than 0.100000
B(  0-C ,  1-C ) :   1.1050 B(  0-C ,  2-H ) :   0.9726 B(  0-C ,  3-H ) :   0.9726 
B(  0-C ,  4-H ) :   0.9681 B(  1-C ,  5-C ) :   1.1046 B(  1-C ,  9-H ) :   0.9511 
B(  1-C , 10-H ) :   0.9511 B(  5-C ,  6-H ) :   0.9682 B(  5-C ,  7-H ) :   0.9726 
B(  5-C ,  8-H ) :   0.9727 

-------
TIMINGS
-------

Total SCF time: 0 days 0 hours 0 min 15 sec 

Total time                  ....      15.258 sec
Sum of individual times     ....      13.880 sec  ( 91.0%)

SCF preparation             ....       1.657 sec  ( 10.9%)
Fock matrix formation       ....      11.402 sec  ( 74.7%)
  Startup                   ....       0.102 sec  (  0.9% of F)
  Split-RI-J                ....       0.251 sec  (  2.2% of F)
  Chain of spheres X        ....       0.152 sec  (  1.3% of F)
  XC integration            ....      10.680 sec  ( 93.7% of F)
    XC Preparation          ....       0.000 sec  (  0.0% of XC)
    Basis function eval.    ....       0.187 sec  (  1.8% of XC)
    Density eval.           ....       0.098 sec  (  0.9% of XC)
    XC-Functional eval.     ....       0.041 sec  (  0.4% of XC)
    XC-Potential eval.      ....       0.120 sec  (  1.1% of XC)
Diagonalization             ....       0.000 sec  (  0.0%)
Density matrix formation    ....       0.267 sec  (  1.8%)
Total Energy calculation    ....       0.076 sec  (  0.5%)
Population analysis         ....       0.048 sec  (  0.3%)
Orbital Transformation      ....       0.033 sec  (  0.2%)
Orbital Orthonormalization  ....       0.000 sec  (  0.0%)
DIIS solution               ....       0.307 sec  (  2.0%)
SOSCF solution              ....       0.090 sec  (  0.6%)
Finished LeanSCF after  15.3 sec

Maximum memory used throughout the entire LEANSCF-calculation: 9.0 MB


           ************************************************************
           *        Program running with 4 parallel MPI-processes     *
           *              working on a common directory               *
           ************************************************************

------------------------------------------------------------------------------
                         ORCA PROPERTY INTEGRAL CALCULATIONS
------------------------------------------------------------------------------

GBWName                                   ... Propane-GeoOpt-1.gbw
Number of atoms                           ...     11
Number of basis functions                 ...     82
Max core memory                           ...   1024 MB

Dipole integrals                          ... YES
Quadrupole integrals                      ...  NO
Linear momentum integrals                 ...  NO
Angular momentum integrals                ...  NO
Higher moments length integrals           ...  NO
Higher moments velocity integrals         ...  NO
Kinetic energy integrals                  ...  NO
GIAO right hand sides                     ...  NO
GIAO dipole derivative integrals          ...  NO
SOC integrals                             ...  NO
EPR diamagnetic integrals (GIAO)          ...  NO
EPR gauge integrals                       ...  NO
Field gradient integrals                  ...  NO (   0 nuclei)
Spin-dipole/Fermi contact integrals       ...  NO (   0 nuclei)
Contact density integrals                 ...  NO (   0 nuclei)
Nucleus-orbit integrals                   ...  NO (   0 nuclei)
Geometric perturbations                   ...  NO (  11 nuclei)

Choice of electric origin   ... Center of mass
Position of electric origin ... (  4.7673,  1.2101,  0.3327) 
Choice of magnetic origin   ... GIAO
Position of magnetic origin ... (  0.0000,  0.0000,  0.0000) 

Calculating integrals                     ... Electric Dipole (Length)     done (  0.0 sec)

Property integrals calculated in   0.0 sec

Maximum memory used throughout the entire PROPINT-calculation: 6.7 MB

-------------------------   --------------------
FINAL SINGLE POINT ENERGY      -118.961761297453
-------------------------   --------------------



           ************************************************************
           *        Program running with 4 parallel MPI-processes     *
           *              working on a common directory               *
           ************************************************************
------------------------------------------------------------------------------
                         ORCA SCF GRADIENT CALCULATION
------------------------------------------------------------------------------

Nuc. rep. gradient        (SHARK) ... done (  0.0 sec)
HCore & Overlap gradient  (SHARK) ... done (  0.0 sec)
Split-RIJ-J gradient      (SHARK) ... done (  0.1 sec)
COSX-gradient                     ... done (  1.5 sec)
XC gradient                       ... done (  1.3 sec)

------------------
CARTESIAN GRADIENT
------------------

   1   C   :    0.002820577    0.006264406    0.000238992
   2   C   :    0.001098217   -0.002546646    0.000090778
   3   H   :    0.000819654    0.002167788    0.005495561
   4   H   :    0.001751186    0.002103820   -0.005325837
   5   H   :    0.001572360   -0.006524944    0.000169661
   6   C   :   -0.006511338    0.002148726   -0.000549965
   7   H   :    0.003735987   -0.005565742    0.000351833
   8   H   :   -0.001940305    0.000492157   -0.005616228
   9   H   :   -0.002920034    0.000472294    0.005191179
  10   H   :   -0.000711736    0.000517303    0.005774602
  11   H   :    0.000285431    0.000470838   -0.005820575

Difference to translation invariance:
           :    0.0000000000   -0.0000000000   -0.0000000000

Difference to rotation invariance:
           :    0.0001309967   -0.0001260379   -0.0000077857

Norm of the Cartesian gradient     ...    0.0200844763
RMS gradient                       ...    0.0034962586
MAX gradient                       ...    0.0065249437

-------
TIMINGS
-------

Total SCF gradient time     ....        2.820 sec

Densities                   ....       0.000 sec  (  0.0%)
One electron gradient       ....       0.010 sec  (  0.4%)
RI-J Coulomb gradient       ....       0.095 sec  (  3.4%)
COSX gradient               ....       1.459 sec  ( 51.7%)
XC gradient                 ....       1.255 sec  ( 44.5%)

Maximum memory used throughout the entire SCFGRAD-calculation: 11.5 MB
------------------------------------------------------------------------------
                         ORCA GEOMETRY RELAXATION STEP
------------------------------------------------------------------------------

Reading the OPT-File                    .... done
Getting information on internals        .... done
Copying old internal coords+grads       .... done
Making the new internal coordinates     .... (2022 redundants) done
Validating the new internal coordinates .... (2022 redundants) done
Calculating the B-matrix                .... done
Calculating the G,G- and P matrices     .... done
Transforming gradient to internals      .... done
Projecting the internal gradient        .... done
Number of atoms                         ....  11
Number of internal coordinates          ....  40
Current Energy                          ....  -118.961761297 Eh
Current gradient norm                   ....     0.020084476 Eh/bohr
Maximum allowed component of the step   ....  0.300
Current trust radius                    ....  0.300
Evaluating the initial hessian          ....  (Almloef) done
Projecting the Hessian                  .... done
Forming the augmented Hessian           .... done
Diagonalizing the augmented Hessian     .... done
Last element of RFO vector              ....  0.996379684
Lowest eigenvalues of augmented Hessian:
 -0.001882979  0.011479662  0.011479896  0.090331633  0.107047957
Length of the computed step             ....  0.085323747
The final length of the internal step   ....  0.085323747
Converting the step to Cartesian space:
 Initial RMS(Int)=    0.0134908690
Transforming coordinates:
 Iter   0:  RMS(Cart)=    0.0270494400 RMS(Int)=    1.4036879315
done
Storing new coordinates                 .... done

                                .--------------------.
          ----------------------|Geometry convergence|-------------------------
          Item                value                   Tolerance       Converged
          ---------------------------------------------------------------------
          RMS gradient        0.0037338762            0.0001000000      NO
          MAX gradient        0.0075897232            0.0003000000      NO
          RMS step            0.0134908690            0.0020000000      NO
          MAX step            0.0274576144            0.0040000000      NO
          ........................................................
          Max(Bonds)      0.0085      Max(Angles)    1.57
          Max(Dihed)        1.09      Max(Improp)    0.00
          ---------------------------------------------------------------------

The optimization has not yet converged - more geometry cycles are needed


    ---------------------------------------------------------------------------
                         Redundant Internal Coordinates
                            (Angstroem and degrees)

        Definition                    Value    dE/dq     Step     New-Value
    ----------------------------------------------------------------------------
     1. B(C   1,C   0)                1.5257 -0.006136  0.0085    1.5342   
     2. B(H   2,C   0)                1.1109  0.005197 -0.0082    1.1027   
     3. B(H   3,C   0)                1.1109  0.005215 -0.0082    1.1027   
     4. B(H   4,C   0)                1.1104  0.004851 -0.0076    1.1027   
     5. B(C   5,C   1)                1.5257 -0.006121  0.0085    1.5342   
     6. B(H   6,C   5)                1.1104  0.004846 -0.0076    1.1027   
     7. B(H   7,C   5)                1.1109  0.005215 -0.0082    1.1027   
     8. B(H   8,C   5)                1.1109  0.005181 -0.0082    1.1028   
     9. B(H   9,C   1)                1.1114  0.004417 -0.0070    1.1044   
    10. B(H  10,C   1)                1.1114  0.004412 -0.0070    1.1044   
    11. A(C   1,C   0,H   3)          110.32 -0.002315    0.40    110.72   
    12. A(C   1,C   0,H   4)          109.57 -0.006016    1.20    110.77   
    13. A(H   3,C   0,H   4)          108.70  0.003652   -0.58    108.12   
    14. A(C   1,C   0,H   2)          110.32 -0.002324    0.40    110.72   
    15. A(H   2,C   0,H   4)          108.70  0.003660   -0.58    108.12   
    16. A(H   2,C   0,H   3)          109.20  0.003549   -0.88    108.33   
    17. A(C   0,C   1,C   5)          111.26 -0.007590    1.57    112.83   
    18. A(C   5,C   1,H   9)          109.21  0.001323   -0.04    109.17   
    19. A(C   0,C   1,H   9)          109.21  0.002099   -0.06    109.15   
    20. A(H   9,C   1,H  10)          108.69  0.003645   -1.54    107.16   
    21. A(C   5,C   1,H  10)          109.22 -0.001127    0.02    109.23   
    22. A(C   0,C   1,H  10)          109.21  0.001897   -0.03    109.18   
    23. A(H   7,C   5,H   8)          109.20  0.004375   -0.89    108.31   
    24. A(H   6,C   5,H   8)          108.70  0.002727   -0.56    108.13   
    25. A(C   1,C   5,H   8)          110.31 -0.002413    0.41    110.73   
    26. A(H   6,C   5,H   7)          108.70  0.003735   -0.58    108.12   
    27. A(C   1,C   5,H   7)          110.32 -0.001783    0.38    110.70   
    28. A(C   1,C   5,H   6)          109.57 -0.006452    1.21    110.78   
    29. D(H   9,C   1,C   0,H   3)   -178.98 -0.000172    0.10   -178.88   
    30. D(H   9,C   1,C   0,H   2)     60.28 -0.001587    0.68     60.96   
    31. D(C   5,C   1,C   0,H   2)    -60.34  0.000204   -0.23    -60.58   
    32. D(H   9,C   1,C   0,H   4)    -59.35 -0.000881    0.39    -58.96   
    33. D(C   5,C   1,C   0,H   4)   -179.98  0.000909   -0.52   -180.50   
    34. D(C   5,C   1,C   0,H   3)     60.39  0.001618   -0.81     59.58   
    35. D(H   6,C   5,C   1,C   0)   -179.98  0.000896   -0.16   -180.14   
    36. D(H   7,C   5,C   1,H  10)     60.28 -0.002854    1.09     61.37   
    37. D(H   7,C   5,C   1,H   9)    179.02  0.001677   -0.78    178.24   
    38. D(H   7,C   5,C   1,C   0)    -60.35  0.000345    0.12    -60.23   
    39. D(H   6,C   5,C   1,H  10)    -59.35 -0.002303    0.82    -58.54   
    40. D(H   6,C   5,C   1,H   9)     59.39  0.002229   -1.06     58.33   
    ----------------------------------------------------------------------------

Geometry step timings:
Preparation and reading OPT file:      0.004 s (13.943 %)
Internal coordinates            :      0.001 s ( 3.723 %)
B/P matrices and projection     :      0.002 s ( 6.572 %)
Hessian update/contruction      :      0.005 s (17.910 %)
Making the step                 :      0.001 s ( 5.427 %)
Converting the step to Cartesian:      0.001 s ( 2.000 %)
Storing new data                :      0.001 s ( 5.037 %)
Checking convergence            :      0.000 s ( 0.008 %)
Final printing                  :      0.012 s (45.371 %)
Total time                      :      0.027 s

Time for energy+gradient        :     23.114 s
Time for complete geometry iter :     23.889 s

         *************************************************************
         *                GEOMETRY OPTIMIZATION CYCLE   2            *
         *************************************************************
---------------------------------
CARTESIAN COORDINATES (ANGSTROEM)
---------------------------------
  C      1.249280    0.371239    0.066866
  C      2.755486    0.111064    0.199248
  H      0.874352    0.941784    0.932846
  H      1.031898    0.947044   -0.848097
  H      0.691562   -0.578634    0.014724
  C      3.579221    1.403786    0.263582
  H      4.654230    1.178115    0.360836
  H      3.436156    2.002964   -0.651005
  H      3.277393    2.016138    1.129604
  H      2.941636   -0.483200    1.111323
  H      3.095764   -0.494636   -0.659260

----------------------------
CARTESIAN COORDINATES (A.U.)
----------------------------
  NO LB      ZA    FRAG     MASS         X           Y           Z
   0 C     6.0000    0    12.011    2.360797    0.701539    0.126358
   1 C     6.0000    0    12.011    5.207114    0.209880    0.376524
   2 H     1.0000    0     1.008    1.652286    1.779714    1.762823
   3 H     1.0000    0     1.008    1.950005    1.789654   -1.602671
   4 H     1.0000    0     1.008    1.306864   -1.093459    0.027825
   5 C     6.0000    0    12.011    6.763748    2.652771    0.498097
   6 H     1.0000    0     1.008    8.795220    2.226315    0.681881
   7 H     1.0000    0     1.008    6.493394    3.785054   -1.230221
   8 H     1.0000    0     1.008    6.193376    3.809949    2.134643
   9 H     1.0000    0     1.008    5.558886   -0.913116    2.100096
  10 H     1.0000    0     1.008    5.850146   -0.934727   -1.245821

--------------------------------
INTERNAL COORDINATES (ANGSTROEM)
--------------------------------
 C      0   0   0     0.000000000000     0.00000000     0.00000000
 C      1   0   0     1.534233137665     0.00000000     0.00000000
 H      1   2   0     1.102730908539   110.71791580     0.00000000
 H      1   2   3     1.102707047002   110.71247647   120.15782083
 H      1   2   3     1.102735192814   110.76444544   240.07744452
 C      2   1   3     1.534213192669   112.81973933   299.42418616
 H      6   2   1     1.102737114005   110.77346662   179.85908047
 H      6   2   1     1.102701569526   110.69576609   299.77147596
 H      6   2   1     1.102755768534   110.72386728    59.90000224
 H      2   1   3     1.104392445409   109.14648674    60.96324378
 H      2   1   3     1.104399072413   109.17249265   177.78791712

---------------------------
INTERNAL COORDINATES (A.U.)
---------------------------
 C      0   0   0     0.000000000000     0.00000000     0.00000000
 C      1   0   0     2.899280455774     0.00000000     0.00000000
 H      1   2   0     2.083859416549   110.71791580     0.00000000
 H      1   2   3     2.083814324778   110.71247647   120.15782083
 H      1   2   3     2.083867512655   110.76444544   240.07744452
 C      2   1   3     2.899242765194   112.81973933   299.42418616
 H      6   2   1     2.083871143181   110.77346662   179.85908047
 H      6   2   1     2.083803973849   110.69576609   299.77147596
 H      6   2   1     2.083906395132   110.72386728    59.90000224
 H      2   1   3     2.086999266194   109.14648674    60.96324378
 H      2   1   3     2.087011789417   109.17249265   177.78791712



           ************************************************************
           *        Program running with 4 parallel MPI-processes     *
           *              working on a common directory               *
           ************************************************************
------------------------------------------------------------------------------
                   ___                                                        
                  /   \      - P O W E R E D   B Y -                         
                 /     \                                                     
                 |  |  |   _    _      __       _____    __    __             
                 |  |  |  | |  | |    /  \     |  _  \  |  |  /  |          
                  \  \/   | |  | |   /    \    | | | |  |  | /  /          
                 / \  \   | |__| |  /  /\  \   | |_| |  |  |/  /          
                |  |  |   |  __  | /  /__\  \  |    /   |      \           
                |  |  |   | |  | | |   __   |  |    \   |  |\   \          
                \     /   | |  | | |  |  |  |  | |\  \  |  | \   \       
                 \___/    |_|  |_| |__|  |__|  |_| \__\ |__|  \__/        
                                                                              
                      - O R C A' S   B I G   F R I E N D -                    
                                      &                                       
                       - I N T E G R A L  F E E D E R -                       
                                                                              
 v1 FN, 2020, v2 2021, v3 2022-2024                                           
------------------------------------------------------------------------------


----------------------
SHARK INTEGRAL PACKAGE
----------------------

Number of atoms                             ...     11
Number of basis functions                   ...     82
Number of shells                            ...     42
Maximum angular momentum                    ...      2
Integral batch strategy                     ... SHARK/LIBINT Hybrid
RI-J (if used) integral strategy            ... SPLIT-RIJ (Revised 2003 algorithm where possible)
Printlevel                                  ...      1
Contraction scheme used                     ... SEGMENTED contraction
Prescreening option                         ... SCHWARTZ
   Thresh                                   ... 2.500e-11
   Tcut                                     ... 2.500e-12
   Tpresel                                  ... 2.500e-12 
Coulomb Range Separation                    ... NOT USED
Exchange Range Separation                   ... NOT USED
Multipole approximations                    ... NOT USED
Finite Nucleus Model                        ... NOT USED
CABS basis                                  ... NOT available
Auxiliary Coulomb fitting basis             ... AVAILABLE
   # of basis functions in Aux-J            ...    235
   # of shells in Aux-J                     ...     85
   Maximum angular momentum in Aux-J        ...      4
Auxiliary J/K fitting basis                 ... NOT available
Auxiliary Correlation fitting basis         ... NOT available
Auxiliary 'external' fitting basis          ... NOT available

Checking pre-screening integrals            ... done (  0.0 sec) Dimension = 42
Check shell pair data                       ... done (  0.0 sec)
Shell pair information
Shell pair cut-off parameter TPreSel        ...   2.5e-12
Total number of shell pairs                 ...       903
Shell pairs after pre-screening             ...       900
Total number of primitive shell pairs       ...      2989
Primitive shell pairs kept                  ...      2558
          la=0 lb=0:    324 shell pairs
          la=1 lb=0:    348 shell pairs
          la=1 lb=1:    105 shell pairs
          la=2 lb=0:     75 shell pairs
          la=2 lb=1:     42 shell pairs
          la=2 lb=2:      6 shell pairs

Calculating one electron integrals          ... done (  0.0 sec)
Calculating RI/J V-Matrix + Cholesky decomp.... done (  0.0 sec)
Calculating Nuclear repulsion               ... done (  0.0 sec) ENN=     82.069713714221 Eh

Diagonalization of the overlap matrix:
Smallest eigenvalue                        ... 3.029e-03
Time for diagonalization                   ...    0.001 sec
Threshold for overlap eigenvalues          ... 1.000e-07
Number of eigenvalues below threshold      ... 0
Time for construction of square roots      ...    0.003 sec
Total time needed                          ...    0.010 sec

-------------------
DFT GRID GENERATION
-------------------

General Integration Accuracy     IntAcc      ... 4.388
Radial Grid Type                 RadialGrid  ... OptM3 with GC (2021)
Angular Grid (max. ang.)         AngularGrid ... 4 (Lebedev-302)
Angular grid pruning method      GridPruning ... 4 (adaptive)
Weight generation scheme         WeightScheme... mBecke (2022)
Basis function cutoff            BFCut       ... 1.0000e-11
Integration weight cutoff        WCut        ... 1.0000e-14
Partially contracted basis set               ... off
Rotationally invariant grid construction     ... off
Angular grids for H and He will be reduced by one unit

Total number of grid points                  ...    44070
Total number of batches                      ...      694
Average number of points per batch           ...       63
Average number of grid points per atom       ...     4006

--------------------
COSX GRID GENERATION
--------------------

GRIDX 1
-------
General Integration Accuracy     IntAcc      ... 3.816
Radial Grid Type                 RadialGrid  ... OptM3 with GC (2021)
Angular Grid (max. ang.)         AngularGrid ... 1 (Lebedev-50)
Angular grid pruning method      GridPruning ... 4 (adaptive)
Weight generation scheme         WeightScheme... mBecke (2022)
Basis function cutoff            BFCut       ... 1.0000e-11
Integration weight cutoff        WCut        ... 1.0000e-14
Partially contracted basis set               ... on
Rotationally invariant grid construction     ... off
Angular grids for H and He will be reduced by one unit

Total number of grid points                  ...     5713
Total number of batches                      ...       52
Average number of points per batch           ...      109
Average number of grid points per atom       ...      519
UseSFitting                                  ... on

GRIDX 2
-------
General Integration Accuracy     IntAcc      ... 4.020
Radial Grid Type                 RadialGrid  ... OptM3 with GC (2021)
Angular Grid (max. ang.)         AngularGrid ... 2 (Lebedev-110)
Angular grid pruning method      GridPruning ... 4 (adaptive)
Weight generation scheme         WeightScheme... mBecke (2022)
Basis function cutoff            BFCut       ... 1.0000e-11
Integration weight cutoff        WCut        ... 1.0000e-14
Partially contracted basis set               ... on
Rotationally invariant grid construction     ... off
Angular grids for H and He will be reduced by one unit

Total number of grid points                  ...    11705
Total number of batches                      ...       97
Average number of points per batch           ...      120
Average number of grid points per atom       ...     1064
UseSFitting                                  ... on

GRIDX 3
-------
General Integration Accuracy     IntAcc      ... 4.338
Radial Grid Type                 RadialGrid  ... OptM3 with GC (2021)
Angular Grid (max. ang.)         AngularGrid ... 3 (Lebedev-194)
Angular grid pruning method      GridPruning ... 4 (adaptive)
Weight generation scheme         WeightScheme... mBecke (2022)
Basis function cutoff            BFCut       ... 1.0000e-11
Integration weight cutoff        WCut        ... 1.0000e-14
Partially contracted basis set               ... on
Rotationally invariant grid construction     ... off
Angular grids for H and He will be reduced by one unit

Total number of grid points                  ...    25594
Total number of batches                      ...      205
Average number of points per batch           ...      124
Average number of grid points per atom       ...     2327
UseSFitting                                  ... on
Initializing property integral containers    ... done (  0.0 sec)

SHARK setup successfully completed in   1.7 seconds

Maximum memory used throughout the entire STARTUP-calculation: 12.7 MB


           ************************************************************
           *        Program running with 4 parallel MPI-processes     *
           *              working on a common directory               *
           ************************************************************
Occupation numbers will be reassigned to an Aufbau configuration
             **** ENERGY FILE WAS UPDATED (Propane-GeoOpt-1.en.tmp) ****
Finished Guess after   0.5 sec
Maximum memory used throughout the entire GUESS-calculation: 6.6 MB


           ************************************************************
           *        Program running with 4 parallel MPI-processes     *
           *              working on a common directory               *
           ************************************************************
----------------------------------------D-I-I-S--------------------------------------------
Iteration    Energy (Eh)           Delta-E    RMSDP     MaxDP     DIISErr   Damp  Time(sec)
-------------------------------------------------------------------------------------------
               ***  Starting incremental Fock matrix formation  ***
    1    -118.9626785293363724     0.00e+00  1.36e-04  1.37e-03  3.46e-03  0.700   1.6
                              *** Initializing SOSCF ***
---------------------------------------S-O-S-C-F--------------------------------------
Iteration    Energy (Eh)           Delta-E    RMSDP     MaxDP     MaxGrad    Time(sec)
--------------------------------------------------------------------------------------
    2    -118.9627432790897927    -6.47e-05  3.86e-04  3.39e-03  2.74e-03     1.5
               *** Restarting incremental Fock matrix formation ***
    3    -118.9629015955278675    -1.58e-04  1.05e-04  1.54e-03  3.94e-04     1.4
    4    -118.9629038397337837    -2.24e-06  4.66e-05  6.87e-04  3.75e-04     1.4
    5    -118.9629061867725710    -2.35e-06  9.56e-06  9.25e-05  6.53e-05     1.6
    6    -118.9629062491299436    -6.24e-08  3.02e-06  3.25e-05  2.69e-05     1.5
    7    -118.9629062585471360    -9.42e-09  1.28e-06  2.96e-05  6.20e-06     1.5
                 **** Energy Check signals convergence ****

               *****************************************************
               *                     SUCCESS                       *
               *           SCF CONVERGED AFTER   7 CYCLES          *
               *****************************************************

Recomputing exchange energy using gridx3       ... done (    0.278 sec)
Old exchange energy                            :     -3.667343194 Eh
New exchange energy                            :     -3.667324160 Eh
Exchange energy change after final integration :      0.000019033 Eh
Total energy after final integration           :   -118.962887225 Eh
             **** ENERGY FILE WAS UPDATED (Propane-GeoOpt-1.en.tmp) ****

----------------
TOTAL SCF ENERGY
----------------

Total Energy       :       -118.96288722510441 Eh           -3237.14473 eV

Components:
Nuclear Repulsion  :         82.06971371422104 Eh            2233.23045 eV
Electronic Energy  :       -201.03261997276817 Eh           -5470.37570 eV
One Electron Energy:       -320.63263765301548 Eh           -8724.85763 eV
Two Electron Energy:        119.60001768024730 Eh            3254.48194 eV

Virial components:
Potential Energy   :       -236.32963317615537 Eh           -6430.85626 eV
Kinetic Energy     :        117.36674595105097 Eh            3193.71152 eV
Virial Ratio       :          2.01359960405411

DFT components:
N(Alpha)           :       13.000007159532 electrons
N(Beta)            :       13.000007159532 electrons
N(Total)           :       26.000014319064 electrons
E(X)               :      -14.506624081834 Eh       
E(C)               :       -0.956464750300 Eh       
E(XC)              :      -15.463088832134 Eh       

---------------
SCF CONVERGENCE
---------------

  Last Energy change         ...    9.4172e-09  Tolerance :   1.0000e-08
  Last MAX-Density change    ...    2.9624e-05  Tolerance :   1.0000e-07
  Last RMS-Density change    ...    1.2826e-06  Tolerance :   5.0000e-09
  Last DIIS Error            ...    2.7439e-03  Tolerance :   5.0000e-07
  Last Orbital Gradient      ...    6.2041e-06  Tolerance :   1.0000e-05
  Last Orbital Rotation      ...    8.7940e-06  Tolerance :   1.0000e-05


Total SCF time: 0 days 0 hours 0 min 13 sec 
Finished LeanSCF after  13.8 sec

Maximum memory used throughout the entire LEANSCF-calculation: 9.1 MB


           ************************************************************
           *        Program running with 4 parallel MPI-processes     *
           *              working on a common directory               *
           ************************************************************

------------------------------------------------------------------------------
                         ORCA PROPERTY INTEGRAL CALCULATIONS
------------------------------------------------------------------------------

GBWName                                   ... Propane-GeoOpt-1.gbw
Number of atoms                           ...     11
Number of basis functions                 ...     82
Max core memory                           ...   1024 MB

Dipole integrals                          ... YES
Quadrupole integrals                      ...  NO
Linear momentum integrals                 ...  NO
Angular momentum integrals                ...  NO
Higher moments length integrals           ...  NO
Higher moments velocity integrals         ...  NO
Kinetic energy integrals                  ...  NO
GIAO right hand sides                     ...  NO
GIAO dipole derivative integrals          ...  NO
SOC integrals                             ...  NO
EPR diamagnetic integrals (GIAO)          ...  NO
EPR gauge integrals                       ...  NO
Field gradient integrals                  ...  NO (   0 nuclei)
Spin-dipole/Fermi contact integrals       ...  NO (   0 nuclei)
Contact density integrals                 ...  NO (   0 nuclei)
Nucleus-orbit integrals                   ...  NO (   0 nuclei)
Geometric perturbations                   ...  NO (  11 nuclei)

Choice of electric origin   ... Center of mass
Position of electric origin ... (  4.7677,  1.2097,  0.3327) 
Choice of magnetic origin   ... GIAO
Position of magnetic origin ... (  0.0000,  0.0000,  0.0000) 

Calculating integrals                     ... Electric Dipole (Length)     done (  0.0 sec)

Property integrals calculated in   0.0 sec

Maximum memory used throughout the entire PROPINT-calculation: 6.7 MB

-------------------------   --------------------
FINAL SINGLE POINT ENERGY      -118.962887225104
-------------------------   --------------------



           ************************************************************
           *        Program running with 4 parallel MPI-processes     *
[...]
     19       0.358526  -0.398443  -0.003570   0.167557   0.253085  -0.004623
     20       0.001112  -0.004526   0.498477   0.024331  -0.005333  -0.489262
     21       0.323041  -0.237198  -0.355366   0.125946   0.218502   0.348863
     22       0.185278  -0.262085  -0.038278  -0.199325  -0.309788   0.055944
     23       0.094993  -0.176773   0.009283  -0.158678  -0.257478   0.003755
     24       0.336543  -0.266803   0.338841   0.127968   0.160371  -0.345782
     25       0.183713  -0.259560   0.048999  -0.192965  -0.307348  -0.050130
     26      -0.039035   0.135315   0.059810   0.186412   0.293301  -0.061491
     27      -0.241662   0.018579   0.060787  -0.201076   0.108689   0.016740
     28      -0.106755  -0.043542   0.007308   0.397992   0.044278  -0.039211
     29      -0.020469  -0.019141  -0.008676   0.324989   0.006526   0.004679
     30      -0.241681   0.014357  -0.044135  -0.145077   0.109115  -0.020701
     31      -0.106856  -0.043676  -0.038363   0.392061   0.045082   0.045957
     32      -0.020430   0.022524   0.010261  -0.359206   0.011972  -0.005786
                 24         25         26         27         28         29    
      0       0.012913  -0.032486   0.003643   0.036092  -0.002015  -0.005771
      1       0.027012   0.010747   0.006821  -0.011780   0.000041  -0.000150
      2       0.001350  -0.002860   0.000287   0.003152   0.023201   0.065007
      3      -0.029246   0.001820   0.027748  -0.002433   0.007553   0.000080
      4       0.066516   0.000836  -0.063125   0.005296  -0.000371  -0.000098
      5      -0.002630   0.000155   0.002649  -0.000191  -0.086901  -0.000515
      6       0.031859   0.134423  -0.000428  -0.149223   0.060022   0.167330
      7      -0.286746  -0.213150   0.004981   0.232667  -0.095802  -0.262056
      8       0.213213  -0.323483   0.003348   0.353090  -0.138261  -0.380687
      9       0.063996   0.075625   0.000252  -0.084955  -0.034914  -0.098352
     10      -0.290599  -0.212901   0.004731   0.232206   0.095834   0.262591
     11      -0.205089   0.341985  -0.002995  -0.373436  -0.146872  -0.405554
     12      -0.199596   0.167058  -0.046517  -0.185742  -0.000890  -0.000463
     13       0.146657   0.298031  -0.087736  -0.323871  -0.000501   0.001238
     14      -0.021650   0.014699  -0.004062  -0.016345   0.006523   0.013562
     15      -0.028457  -0.015380  -0.007364  -0.014290  -0.002118   0.006352
     16       0.008435  -0.034377   0.002114  -0.031714   0.000130  -0.000654
     17      -0.002374  -0.001221  -0.000620  -0.001160   0.023351  -0.066383
     18       0.026885   0.364124   0.093294   0.331539   0.000343  -0.004689
     19       0.246055  -0.083886  -0.023986  -0.072929  -0.000146   0.001125
     20      -0.001632   0.032340   0.008309   0.029393   0.006651  -0.014205
     21       0.199129  -0.062036  -0.002847  -0.054761  -0.026250   0.070379
     22      -0.229490   0.240128   0.001859   0.219785   0.099653  -0.277967
     23      -0.190449  -0.373752  -0.001250  -0.339529  -0.147708   0.411224
     24       0.159214  -0.126124  -0.002877  -0.113152   0.051249  -0.141121
     25      -0.227353   0.245370   0.001560   0.224707  -0.101205   0.284811
     26       0.224274   0.355404   0.000288   0.323383  -0.139359   0.392142
     27       0.151077  -0.002194  -0.114054   0.009070   0.115067  -0.002565
     28      -0.288493  -0.000994   0.368799  -0.028280  -0.362442  -0.002992
     29      -0.267567  -0.000288  -0.581253   0.042325   0.536476   0.002136
     30       0.101139  -0.002201  -0.213118   0.016429  -0.205371   0.001604
     31      -0.284988  -0.000999   0.375503  -0.029125   0.366992   0.003985
     32       0.292445  -0.000118   0.550004  -0.040346   0.503330   0.003909
                 30         31         32    
      0       0.005792  -0.014472   0.013738
      1       0.001627  -0.066799   0.061018
      2      -0.061754  -0.003151   0.000965
      3       0.003023   0.000054  -0.003845
      4      -0.000233  -0.000448   0.008770
      5      -0.034342  -0.001142  -0.000645
      6      -0.161413  -0.096443   0.086480
      7       0.246589   0.134275  -0.116729
      8       0.358275   0.219313  -0.192586
      9       0.098783  -0.050598   0.052224
     10      -0.252744   0.119000  -0.118471
     11       0.392178  -0.209411   0.207736
     12      -0.006931   0.321635  -0.293855
     13      -0.013216   0.542340  -0.494842
     14      -0.010736   0.027965  -0.025826
     15       0.007701  -0.054372  -0.058530
     16      -0.001708   0.031560   0.033484
     17      -0.059963  -0.007191  -0.006345
     18      -0.024733   0.569671   0.608933
     19       0.005184  -0.117150  -0.124835
     20      -0.011953   0.050198   0.053871
     21       0.060214   0.026029   0.025231
     22      -0.250718  -0.136526  -0.144159
     23       0.366681   0.216359   0.227105
     24      -0.127505   0.053709   0.059822
     25       0.265918  -0.119895  -0.138148
     26       0.363729  -0.180620  -0.205585
     27       0.043509   0.000100   0.014971
     28      -0.137568  -0.003046  -0.047376
     29       0.206357   0.004013   0.070357
     30      -0.078716  -0.004432   0.025734
     31       0.140299   0.006234  -0.045999
     32       0.195018   0.009030  -0.063278


-----------
IR SPECTRUM
-----------

 Mode   freq       eps      Int      T**2         TX        TY        TZ
       cm**-1   L/(mol*cm) km/mol    a.u.
----------------------------------------------------------------------------
  6:    228.96   0.000000    0.00  0.000000  ( 0.000022  0.000097 -0.000019)
  7:    278.28   0.000000    0.00  0.000000  (-0.000012 -0.000003 -0.000610)
  8:    367.49   0.000022    0.11  0.000019  ( 0.001781 -0.003946  0.000180)
  9:    750.85   0.000713    3.60  0.000296  (-0.001543  0.000087  0.017139)
 10:    878.45   0.000163    0.83  0.000058  ( 0.003076 -0.006962  0.000346)
 11:    904.44   0.000000    0.00  0.000000  (-0.000087 -0.000097 -0.000013)
 12:    927.70   0.000328    1.66  0.000110  ( 0.009600  0.004193  0.000826)
 13:   1067.07   0.000073    0.37  0.000021  ( 0.004222  0.001847  0.000353)
 14:   1167.44   0.000267    1.35  0.000071  (-0.003413  0.007723 -0.000352)
 15:   1198.57   0.000066    0.33  0.000017  (-0.000366 -0.000031  0.004115)
 16:   1303.62   0.000000    0.00  0.000000  (-0.000010  0.000010  0.000016)
 17:   1354.39   0.000964    4.87  0.000222  ( 0.013604  0.005994  0.001101)
 18:   1395.97   0.000953    4.82  0.000213  ( 0.013249  0.006018  0.001145)
 19:   1405.35   0.000218    1.10  0.000048  ( 0.002906 -0.006309  0.000260)
 20:   1460.89   0.000000    0.00  0.000000  (-0.000021  0.000162  0.000119)
 21:   1462.75   0.000023    0.11  0.000005  ( 0.000935 -0.001982  0.000197)
 22:   1470.98   0.000256    1.29  0.000054  ( 0.006739  0.002946  0.000486)
 23:   1478.11   0.002146   10.84  0.000453  ( 0.001770 -0.000007 -0.021211)
 24:   1485.80   0.000677    3.42  0.000142  ( 0.004784 -0.010916  0.000305)
 25:   3014.85   0.006407   32.38  0.000663  (-0.023100 -0.011217 -0.001946)
 26:   3016.99   0.006687   33.79  0.000692  ( 0.010686 -0.024009  0.001049)
 27:   3018.25   0.002998   15.15  0.000310  ( 0.008124 -0.015600  0.000783)
 28:   3048.84   0.001463    7.39  0.000150  ( 0.001022 -0.000041 -0.012192)
 29:   3088.75   0.000003    0.02  0.000000  ( 0.000185 -0.000220 -0.000520)
 30:   3096.91   0.016615   83.97  0.001674  ( 0.004311 -0.000078 -0.040690)
 31:   3099.60   0.004623   23.36  0.000465  (-0.018996 -0.009766 -0.003035)
 32:   3101.08   0.008540   43.16  0.000859  (-0.012566  0.026439 -0.001578)

* The epsilon (eps) is given for a Dirac delta lineshape.
** The dipole moment derivative (T) already includes vibrational overlap.

The first frequency considered to be a vibration is 6
The total number of vibrations considered is 27


--------------------------
THERMOCHEMISTRY AT 298.15K
--------------------------

Temperature         ...   298.15 K
Pressure            ...     1.00 atm
Total Mass          ...    44.10 AMU
Quasi RRHO          ...     True
Cut-Off Frequency   ...     1.00 cm^-1

Throughout the following assumptions are being made:
  (1) The electronic state is orbitally nondegenerate
  (2) There are no thermally accessible electronically excited states
  (3) Hindered rotations indicated by low frequency modes are not
      treated as such but are treated as vibrations and this may
      cause some error
  (4) All equations used are the standard statistical mechanics
      equations for an ideal gas
  (5) All vibrations are strictly harmonic

freq.     228.96  E(vib)   ...       0.32 
freq.     278.28  E(vib)   ...       0.28 
freq.     367.49  E(vib)   ...       0.21 
freq.     750.85  E(vib)   ...       0.06 
freq.     878.45  E(vib)   ...       0.04 
freq.     904.44  E(vib)   ...       0.03 
freq.     927.70  E(vib)   ...       0.03 
freq.    1067.07  E(vib)   ...       0.02 
freq.    1167.44  E(vib)   ...       0.01 
freq.    1198.57  E(vib)   ...       0.01 
freq.    1303.62  E(vib)   ...       0.01 
freq.    1354.39  E(vib)   ...       0.01 
freq.    1395.97  E(vib)   ...       0.00 
freq.    1405.35  E(vib)   ...       0.00 
freq.    1460.89  E(vib)   ...       0.00 
freq.    1462.75  E(vib)   ...       0.00 
freq.    1470.98  E(vib)   ...       0.00 
freq.    1478.11  E(vib)   ...       0.00 
freq.    1485.80  E(vib)   ...       0.00 
freq.    3014.85  E(vib)   ...       0.00 
freq.    3016.99  E(vib)   ...       0.00 
freq.    3018.25  E(vib)   ...       0.00 
freq.    3048.84  E(vib)   ...       0.00 
freq.    3088.75  E(vib)   ...       0.00 
freq.    3096.91  E(vib)   ...       0.00 
freq.    3099.60  E(vib)   ...       0.00 
freq.    3101.08  E(vib)   ...       0.00 

------------
INNER ENERGY
------------

The inner energy is: U= E(el) + E(ZPE) + E(vib) + E(rot) + E(trans)
    E(el)   - is the total energy from the electronic structure calculation
              = E(kin-el) + E(nuc-el) + E(el-el) + E(nuc-nuc)
    E(ZPE)  - the the zero temperature vibrational energy from the frequency calculation
    E(vib)  - the the finite temperature correction to E(ZPE) due to population
              of excited vibrational states
    E(rot)  - is the rotational thermal energy
    E(trans)- is the translational thermal energy

Summary of contributions to the inner energy U:
Electronic energy                ...   -118.96307455 Eh
Zero point energy                ...      0.10268245 Eh      64.43 kcal/mol
Thermal vibrational correction   ...      0.00168814 Eh       1.06 kcal/mol
Thermal rotational correction    ...      0.00141627 Eh       0.89 kcal/mol
Thermal translational correction ...      0.00141627 Eh       0.89 kcal/mol
-----------------------------------------------------------------------
Total thermal energy                   -118.85587141 Eh


Summary of corrections to the electronic energy:
(perhaps to be used in another calculation)
Total thermal correction                  0.00452068 Eh       2.84 kcal/mol
Non-thermal (ZPE) correction              0.10268245 Eh      64.43 kcal/mol
-----------------------------------------------------------------------
Total correction                          0.10720313 Eh      67.27 kcal/mol


--------
ENTHALPY
--------

The enthalpy is H = U + kB*T
                kB is Boltzmann's constant
Total thermal energy              ...   -118.85587141 Eh 
Thermal Enthalpy correction       ...      0.00094421 Eh       0.59 kcal/mol
-----------------------------------------------------------------------
Total Enthalpy                    ...   -118.85492720 Eh


Note: Only C1 symmetry has been detected, increase convergence thresholds 
      if your molecule has a higher symmetry. Symmetry factor of 1.0 is   
      used for the rotational entropy correction. 
 

Note: Rotational entropy computed according to Herzberg 
Infrared and Raman Spectra, Chapter V,1, Van Nostrand Reinhold, 1945 
Point Group:  C1, Symmetry Number:   1  
Rotational constants in cm-1:     0.980806     0.277425     0.246259 

Vibrational entropy computed according to the QRRHO of S. Grimme
Chem.Eur.J. 2012 18 9955 using a reference frequency of 100.0 cm-1


-------
ENTROPY
-------

The entropy contributions are T*S = T*(S(el)+S(vib)+S(rot)+S(trans))
     S(el)   - electronic entropy
     S(vib)  - vibrational entropy
     S(rot)  - rotational entropy
     S(trans)- translational entropy
The entropies will be listed as multiplied by the temperature to get
units of energy

Electronic entropy                ...      0.00000000 Eh      0.00 kcal/mol
Vibrational entropy               ...      0.00261864 Eh      1.64 kcal/mol
Rotational entropy                ...      0.01078685 Eh      6.77 kcal/mol
Translational entropy             ...      0.01771163 Eh     11.11 kcal/mol
-----------------------------------------------------------------------
Final entropy term                ...      0.03111712 Eh     19.53 kcal/mol

In case the symmetry of your molecule has not been determined correctly
or in case you have a reason to use a different symmetry number we print 
out the resulting rotational entropy values for sn=1,12:

 non-linear molecules -----------------------------------
|  sn= 1 | S(rot)=       0.01078685 Eh      6.77 kcal/mol|
|  sn= 2 | S(rot)=       0.01013239 Eh      6.36 kcal/mol|
|  sn= 3 | S(rot)=       0.00974956 Eh      6.12 kcal/mol|
|  sn= 4 | S(rot)=       0.00947794 Eh      5.95 kcal/mol|
|  sn= 5 | S(rot)=       0.00926725 Eh      5.82 kcal/mol|
|  sn= 6 | S(rot)=       0.00909510 Eh      5.71 kcal/mol|
|  sn= 7 | S(rot)=       0.00894956 Eh      5.62 kcal/mol|
|  sn= 8 | S(rot)=       0.00882348 Eh      5.54 kcal/mol|
|  sn= 9 | S(rot)=       0.00871227 Eh      5.47 kcal/mol|
|  sn=10 | S(rot)=       0.00861279 Eh      5.40 kcal/mol|
|  sn=11 | S(rot)=       0.00852280 Eh      5.35 kcal/mol|
|  sn=12 | S(rot)=       0.00844065 Eh      5.30 kcal/mol|
 linear molecules ---------------------------------------
|  Dinfh | S(rot)=       0.00664895 Eh      4.17 kcal/mol|
|  Cinfv | S(rot)=       0.00730341 Eh      4.58 kcal/mol|
 --------------------------------------------------------


-------------------
GIBBS FREE ENERGY
-------------------

The Gibbs free energy is G = H - T*S

Total enthalpy                    ...   -118.85492720 Eh 
Total entropy correction          ...     -0.03111712 Eh    -19.53 kcal/mol
-----------------------------------------------------------------------
Final Gibbs free energy         ...   -118.88604432 Eh

For completeness - the Gibbs free energy minus the electronic energy
G-E(el)                           ...      0.07703023 Eh     48.34 kcal/mol


Maximum memory used throughout the entire PROP-calculation: 21.2 MB

--------------------------------
SUGGESTED CITATIONS FOR THIS RUN
--------------------------------

Below you find a list of papers that are relevant to this ORCA run
We neither can nor want to force you to cite these papers, but we appreciate if you do
You receive ORCA, which is the product of decades of hard work by many enthusiastic individuals, for free
The only thing we kindly ask in return is that you cite our papers,
We deeply appreciate it, if you show your appreciation for ORCA by not just citing the generic ORCA reference.

Please note that relegating all ORCA citations to the supporting information does *not* help us.
SI sections are not indexed - citations you put there will not count into any citation statistics
But we need these citations in order to attract the funding resources that allow us to do what we are doing

Therefore, if you are a happy ORCA user, please consider citing a few of the papers listed below in the main body of your paper

In addition to the list printed below, the program has created the file Propane-GeoOpt-1.bibtex that contains the list in bibtex format
You can import this file easily into all common literature databanks and citation aid programs


List of essential papers. We consider these as the minimum necessary citations

  1. Neese,F.
     Software update: the ORCA program system, version 5.0
     WIRES Comput. Molec. Sci., 2022 12(1)e1606
     doi.org/10.1002/wcms.1606

List of papers to cite with high priority. The work reported in these papers was absolutely
necessary for this run to complete.
Our perspective: the developers of density functionals and basis sets usually get cited in chemistry papers
Good! But without the algorithms to do something with them, the functionals or basis sets would not do anything.
Hence, in our opinion, the algorithm design and method developments papers are equally worthy of getting cited

  1. Neese,F.
     An improvement of the resolution of the identity approximation for the formation of the Coulomb matrix
     J. Comp. Chem., 2003 24(14)1740-1747
     doi.org/10.1002/jcc.10318
  2. Neese,F.; Wennmohs,F.; Hansen,A.; Becker,U.
     Efficient, approximate and parallel Hartree-Fock and hybrid DFT calculations. A 'chain-of-spheres' algorithm for the Hartree-Fock exchange
     Chem. Phys., 2009 356(1-3)98-109
     doi.org/10.1016/j.chemphys.2008.10.036
  3. Bykov,D.; Petrenko,T.; Izsak,R.; Kossmann,S.; Becker,U.; Valeev,E.; Neese,F.
     Efficient implementation of the analytic second derivatives of Hartree-Fock and hybrid DFT energies: a detailed analysis of different approximations
     Molec. Phys., 2015 113 1961-1977
     doi.org/10.1080/00268976.2015.1025114
  4. Helmich-Paris,B.; de Souza,B.; Neese,F.; Izsák,R.
     An improved chain of spheres for exchange algorithm
     J. Chem. Phys., 2021 155 104109
     doi.org/doi: 10.1063/5.0058766.
  5. Neese,F.
     The SHARK Integral Generation and Digestion System
     J. Comp. Chem., 2022  1-16
     doi.org/10.1002/jcc.26942

List of suggested additional citations. These are papers that are important in the 'surrounding' of 
of this run, or papers that preceded the highly important papers. If you like your results we are grateful for a citation.

  1. Izsak,R.; Neese,F.
     An overlap fitted chain of spheres exchange method
     J. Chem. Phys., 2011 135 144105
     doi.org/10.1063/1.3646921
  2. Izsak,R.; Hansen,A.; Neese,F.
     The resolution of identity and chain of spheres approximations for the LPNO-CCSD singles Fock term
     Molec. Phys., 2012 110 2413-2417
     doi.org/10.1080/00268976.2012.687466
  3. Neese,F.
     The ORCA program system
     WIRES Comput. Molec. Sci., 2012 2(1)73-78
     doi.org/10.1002/wcms.81
  4. Izsak,R.; Neese,F.; Klopper,W.
     Robust fitting techniques in the chain of spheres approximation to the Fock exchange: The role of the complementary space
     J. Chem. Phys., 2013 139 
     doi.org/10.1063/1.4819264
  5. Neese,F.
     Software update: the ORCA program system, version 4.0
     WIRES Comput. Molec. Sci., 2018 8(1)1-6
     doi.org/10.1002/wcms.1327
  6. Neese,F.; Wennmohs,F.; Becker,U.; Riplinger,C.
     The ORCA quantum chemistry program package
     J. Chem. Phys., 2020 152 Art. No. L224108
     doi.org/10.1063/5.0004608

List of optional additional citations

  1. Neese,F.
     Approximate second-order SCF convergence for spin unrestricted wavefunctions
     Chem. Phys. Lett., 2000 325(1-3)93-98
     doi.org/10.1016/s0009-2614(00)00662-x

Timings for individual modules:

Sum of individual times          ...      141.121 sec (=   2.352 min)
Startup calculation              ...       14.029 sec (=   0.234 min)   9.9 %
SCF iterations                   ...       69.757 sec (=   1.163 min)  49.4 %
Property integrals               ...       14.034 sec (=   0.234 min)   9.9 %
SCF Response                     ...        8.205 sec (=   0.137 min)   5.8 %
Property calculations            ...       19.360 sec (=   0.323 min)  13.7 %
SCF Gradient evaluation          ...       15.481 sec (=   0.258 min)  11.0 %
Geometry relaxation              ...        0.254 sec (=   0.004 min)   0.2 %
                             ****ORCA TERMINATED NORMALLY****
TOTAL RUN TIME: 0 days 0 hours 2 minutes 26 seconds 481 msec
